
     Program PWSCF v.6.4.1 starts on 13Aug2024 at 14: 3: 3 

     This program is part of the open-source Quantum ESPRESSO suite
     for quantum simulation of materials; please cite
         "P. Giannozzi et al., J. Phys.:Condens. Matter 21 395502 (2009);
         "P. Giannozzi et al., J. Phys.:Condens. Matter 29 465901 (2017);
          URL http://www.quantum-espresso.org", 
     in publications or presentations arising from this work. More details at
     http://www.quantum-espresso.org/quote

     Parallel version (MPI & OpenMP), running on       4 processor cores
     Number of MPI processes:                 1
     Threads/MPI process:                     4

     MPI processes distributed on     1 nodes
     Waiting for input...
     Reading input from standard input
Warning: card &BANDS ignored
Warning: card     LSYM           = .FALSE. ignored
Warning: card     SPIN_COMPONENT = 1 ignored
Warning: card / ignored

     Current dimensions of program PWSCF are:
     Max number of different atomic species (ntypx) = 10
     Max number of k-points (npk) =  40000
     Max angular momentum in pseudopotentials (lmaxx) =  3

     Atomic positions and unit cell read from directory:
     .\wte2.save\


     IMPORTANT: XC functional enforced from input :
     Exchange-correlation      = PBE ( 1  4  3  4 0 0)
     Any further DFT definition will be discarded
     Please, verify this is what you really want


     Subspace diagonalization in iterative solution of the eigenvalue problem:
     a serial algorithm will be used


     G-vector sticks info
     --------------------
     sticks:   dense  smooth     PW     G-vecs:    dense   smooth      PW
     Sum        3159    1515    423               436185   145025   21679



     bravais-lattice index     =            8
     lattice parameter (alat)  =       6.6101  a.u.
     unit-cell volume          =    2308.8680 (a.u.)^3
     number of atoms/cell      =            6
     number of atomic types    =            2
     number of electrons       =        92.00
     number of Kohn-Sham states=           60
     kinetic-energy cutoff     =      60.0000  Ry
     charge density cutoff     =     500.0000  Ry
     Exchange-correlation      = PBE ( 1  4  3  4 0 0)

     celldm(1)=   6.610149  celldm(2)=   1.812001  celldm(3)=   4.411711
     celldm(4)=   0.000000  celldm(5)=   0.000000  celldm(6)=   0.000000

     crystal axes: (cart. coord. in units of alat)
               a(1) = (   1.000000   0.000000   0.000000 )  
               a(2) = (   0.000000   1.812001   0.000000 )  
               a(3) = (   0.000000   0.000000   4.411711 )  

     reciprocal axes: (cart. coord. in units 2 pi/alat)
               b(1) = (  1.000000  0.000000  0.000000 )  
               b(2) = (  0.000000  0.551876  0.000000 )  
               b(3) = (  0.000000  0.000000  0.226669 )  


     PseudoPot. # 1 for Te read from file:
     .\Te_ONCV_PBE_sr.upf
     MD5 check sum: 6c2f074c3c62fdc4fab072381db7b1a3
     Pseudo is Norm-conserving + core correction, Zval = 16.0
     Generated using ONCVPSP code by D. R. Hamann
     Using radial grid of 1294 points,  6 beta functions with: 
                l(1) =   0
                l(2) =   0
                l(3) =   1
                l(4) =   1
                l(5) =   2
                l(6) =   2

     PseudoPot. # 2 for W  read from file:
     .\W_ONCV_PBE_sr.upf
     MD5 check sum: dd4cc13c28aada4fb8dcb03a6c0f6acf
     Pseudo is Norm-conserving + core correction, Zval = 14.0
     Generated using ONCVPSP code by D. R. Hamann
     Using radial grid of 1396 points,  7 beta functions with: 
                l(1) =   0
                l(2) =   0
                l(3) =   1
                l(4) =   1
                l(5) =   2
                l(6) =   2
                l(7) =   3

     atomic species   valence    mass     pseudopotential
        Te            16.00   127.60000     Te( 1.00)
        W             14.00   183.84000     W ( 1.00)

     No symmetry found


                                    s                        frac. trans.

      isym =  1     identity                                     

 cryst.   s( 1) = (     1          0          0      )
                  (     0          1          0      )
                  (     0          0          1      )

 cart.    s( 1) = (  1.0000000  0.0000000  0.0000000 )
                  (  0.0000000  1.0000000  0.0000000 )
                  (  0.0000000  0.0000000  1.0000000 )


     point group C_1 (1)    
     there are  1 classes
     the character table:

       E    
A      1.00

     the symmetry operations in each class and the name of the first element:

     E        1
          identity                                               

   Cartesian axes

     site n.     atom                  positions (alat units)
         1           Te  tau(   1) = (   0.0000001   0.3758597   1.8171391  )
         2           Te  tau(   2) = (   0.5000002   1.2674192   1.6396615  )
         3           Te  tau(   3) = (  -0.0000000   1.5573761   2.8386118  )
         4           Te  tau(   4) = (   0.5000003   0.6370455   2.6609266  )
         5           W   tau(   5) = (   0.5000001   1.7346064   2.2680210  )
         6           W   tau(   6) = (   0.0000001   1.0904003   2.2105366  )

   Crystallographic axes

     site n.     atom                  positions (cryst. coord.)
         1           Te  tau(   1) = (  0.0000001  0.2074280  0.4118899  )
         2           Te  tau(   2) = (  0.5000002  0.6994584  0.3716611  )
         3           Te  tau(   3) = ( -0.0000000  0.8594787  0.6434265  )
         4           Te  tau(   4) = (  0.5000003  0.3515702  0.6031507  )
         5           W   tau(   5) = (  0.5000001  0.9572879  0.5140910  )
         6           W   tau(   6) = (  0.0000001  0.6017659  0.5010611  )

     number of k points=    61  gaussian smearing, width (Ry)=  0.0100
                       cart. coord. in units 2pi/alat
        k(    1) = (  -0.5000000   0.0000000   0.0000000), wk =   0.0327869
        k(    2) = (  -0.4833333   0.0000000   0.0000000), wk =   0.0327869
        k(    3) = (  -0.4666667   0.0000000   0.0000000), wk =   0.0327869
        k(    4) = (  -0.4500000   0.0000000   0.0000000), wk =   0.0327869
        k(    5) = (  -0.4333333   0.0000000   0.0000000), wk =   0.0327869
        k(    6) = (  -0.4166667   0.0000000   0.0000000), wk =   0.0327869
        k(    7) = (  -0.4000000   0.0000000   0.0000000), wk =   0.0327869
        k(    8) = (  -0.3833333   0.0000000   0.0000000), wk =   0.0327869
        k(    9) = (  -0.3666667   0.0000000   0.0000000), wk =   0.0327869
        k(   10) = (  -0.3500000   0.0000000   0.0000000), wk =   0.0327869
        k(   11) = (  -0.3333333   0.0000000   0.0000000), wk =   0.0327869
        k(   12) = (  -0.3166667   0.0000000   0.0000000), wk =   0.0327869
        k(   13) = (  -0.3000000   0.0000000   0.0000000), wk =   0.0327869
        k(   14) = (  -0.2833333   0.0000000   0.0000000), wk =   0.0327869
        k(   15) = (  -0.2666667   0.0000000   0.0000000), wk =   0.0327869
        k(   16) = (  -0.2500000   0.0000000   0.0000000), wk =   0.0327869
        k(   17) = (  -0.2333333   0.0000000   0.0000000), wk =   0.0327869
        k(   18) = (  -0.2166667   0.0000000   0.0000000), wk =   0.0327869
        k(   19) = (  -0.2000000   0.0000000   0.0000000), wk =   0.0327869
        k(   20) = (  -0.1833333   0.0000000   0.0000000), wk =   0.0327869
        k(   21) = (  -0.1666667   0.0000000   0.0000000), wk =   0.0327869
        k(   22) = (  -0.1500000   0.0000000   0.0000000), wk =   0.0327869
        k(   23) = (  -0.1333333   0.0000000   0.0000000), wk =   0.0327869
        k(   24) = (  -0.1166667   0.0000000   0.0000000), wk =   0.0327869
        k(   25) = (  -0.1000000   0.0000000   0.0000000), wk =   0.0327869
        k(   26) = (  -0.0833333   0.0000000   0.0000000), wk =   0.0327869
        k(   27) = (  -0.0666667   0.0000000   0.0000000), wk =   0.0327869
        k(   28) = (  -0.0500000   0.0000000   0.0000000), wk =   0.0327869
        k(   29) = (  -0.0333333   0.0000000   0.0000000), wk =   0.0327869
        k(   30) = (  -0.0166667   0.0000000   0.0000000), wk =   0.0327869
        k(   31) = (   0.0000000   0.0000000   0.0000000), wk =   0.0327869
        k(   32) = (   0.0166667   0.0000000   0.0000000), wk =   0.0327869
        k(   33) = (   0.0333333   0.0000000   0.0000000), wk =   0.0327869
        k(   34) = (   0.0500000   0.0000000   0.0000000), wk =   0.0327869
        k(   35) = (   0.0666667   0.0000000   0.0000000), wk =   0.0327869
        k(   36) = (   0.0833333   0.0000000   0.0000000), wk =   0.0327869
        k(   37) = (   0.1000000   0.0000000   0.0000000), wk =   0.0327869
        k(   38) = (   0.1166667   0.0000000   0.0000000), wk =   0.0327869
        k(   39) = (   0.1333333   0.0000000   0.0000000), wk =   0.0327869
        k(   40) = (   0.1500000   0.0000000   0.0000000), wk =   0.0327869
        k(   41) = (   0.1666667   0.0000000   0.0000000), wk =   0.0327869
        k(   42) = (   0.1833333   0.0000000   0.0000000), wk =   0.0327869
        k(   43) = (   0.2000000   0.0000000   0.0000000), wk =   0.0327869
        k(   44) = (   0.2166667   0.0000000   0.0000000), wk =   0.0327869
        k(   45) = (   0.2333333   0.0000000   0.0000000), wk =   0.0327869
        k(   46) = (   0.2500000   0.0000000   0.0000000), wk =   0.0327869
        k(   47) = (   0.2666667   0.0000000   0.0000000), wk =   0.0327869
        k(   48) = (   0.2833333   0.0000000   0.0000000), wk =   0.0327869
        k(   49) = (   0.3000000   0.0000000   0.0000000), wk =   0.0327869
        k(   50) = (   0.3166667   0.0000000   0.0000000), wk =   0.0327869
        k(   51) = (   0.3333333   0.0000000   0.0000000), wk =   0.0327869
        k(   52) = (   0.3500000   0.0000000   0.0000000), wk =   0.0327869
        k(   53) = (   0.3666667   0.0000000   0.0000000), wk =   0.0327869
        k(   54) = (   0.3833333   0.0000000   0.0000000), wk =   0.0327869
        k(   55) = (   0.4000000   0.0000000   0.0000000), wk =   0.0327869
        k(   56) = (   0.4166667   0.0000000   0.0000000), wk =   0.0327869
        k(   57) = (   0.4333333   0.0000000   0.0000000), wk =   0.0327869
        k(   58) = (   0.4500000   0.0000000   0.0000000), wk =   0.0327869
        k(   59) = (   0.4666667   0.0000000   0.0000000), wk =   0.0327869
        k(   60) = (   0.4833333   0.0000000   0.0000000), wk =   0.0327869
        k(   61) = (   0.5000000   0.0000000   0.0000000), wk =   0.0327869

                       cryst. coord.
        k(    1) = (  -0.5000000   0.0000000   0.0000000), wk =   0.0327869
        k(    2) = (  -0.4833333   0.0000000   0.0000000), wk =   0.0327869
        k(    3) = (  -0.4666667   0.0000000   0.0000000), wk =   0.0327869
        k(    4) = (  -0.4500000   0.0000000   0.0000000), wk =   0.0327869
        k(    5) = (  -0.4333333   0.0000000   0.0000000), wk =   0.0327869
        k(    6) = (  -0.4166667   0.0000000   0.0000000), wk =   0.0327869
        k(    7) = (  -0.4000000   0.0000000   0.0000000), wk =   0.0327869
        k(    8) = (  -0.3833333   0.0000000   0.0000000), wk =   0.0327869
        k(    9) = (  -0.3666667   0.0000000   0.0000000), wk =   0.0327869
        k(   10) = (  -0.3500000   0.0000000   0.0000000), wk =   0.0327869
        k(   11) = (  -0.3333333   0.0000000   0.0000000), wk =   0.0327869
        k(   12) = (  -0.3166667   0.0000000   0.0000000), wk =   0.0327869
        k(   13) = (  -0.3000000   0.0000000   0.0000000), wk =   0.0327869
        k(   14) = (  -0.2833333   0.0000000   0.0000000), wk =   0.0327869
        k(   15) = (  -0.2666667   0.0000000   0.0000000), wk =   0.0327869
        k(   16) = (  -0.2500000   0.0000000   0.0000000), wk =   0.0327869
        k(   17) = (  -0.2333333   0.0000000   0.0000000), wk =   0.0327869
        k(   18) = (  -0.2166667   0.0000000   0.0000000), wk =   0.0327869
        k(   19) = (  -0.2000000   0.0000000   0.0000000), wk =   0.0327869
        k(   20) = (  -0.1833333   0.0000000   0.0000000), wk =   0.0327869
        k(   21) = (  -0.1666667   0.0000000   0.0000000), wk =   0.0327869
        k(   22) = (  -0.1500000   0.0000000   0.0000000), wk =   0.0327869
        k(   23) = (  -0.1333333   0.0000000   0.0000000), wk =   0.0327869
        k(   24) = (  -0.1166667   0.0000000   0.0000000), wk =   0.0327869
        k(   25) = (  -0.1000000   0.0000000   0.0000000), wk =   0.0327869
        k(   26) = (  -0.0833333   0.0000000   0.0000000), wk =   0.0327869
        k(   27) = (  -0.0666667   0.0000000   0.0000000), wk =   0.0327869
        k(   28) = (  -0.0500000   0.0000000   0.0000000), wk =   0.0327869
        k(   29) = (  -0.0333333   0.0000000   0.0000000), wk =   0.0327869
        k(   30) = (  -0.0166667   0.0000000   0.0000000), wk =   0.0327869
        k(   31) = (   0.0000000   0.0000000   0.0000000), wk =   0.0327869
        k(   32) = (   0.0166667   0.0000000   0.0000000), wk =   0.0327869
        k(   33) = (   0.0333333   0.0000000   0.0000000), wk =   0.0327869
        k(   34) = (   0.0500000   0.0000000   0.0000000), wk =   0.0327869
        k(   35) = (   0.0666667   0.0000000   0.0000000), wk =   0.0327869
        k(   36) = (   0.0833333   0.0000000   0.0000000), wk =   0.0327869
        k(   37) = (   0.1000000   0.0000000   0.0000000), wk =   0.0327869
        k(   38) = (   0.1166667   0.0000000   0.0000000), wk =   0.0327869
        k(   39) = (   0.1333333   0.0000000   0.0000000), wk =   0.0327869
        k(   40) = (   0.1500000   0.0000000   0.0000000), wk =   0.0327869
        k(   41) = (   0.1666667   0.0000000   0.0000000), wk =   0.0327869
        k(   42) = (   0.1833333   0.0000000   0.0000000), wk =   0.0327869
        k(   43) = (   0.2000000   0.0000000   0.0000000), wk =   0.0327869
        k(   44) = (   0.2166667   0.0000000   0.0000000), wk =   0.0327869
        k(   45) = (   0.2333333   0.0000000   0.0000000), wk =   0.0327869
        k(   46) = (   0.2500000   0.0000000   0.0000000), wk =   0.0327869
        k(   47) = (   0.2666667   0.0000000   0.0000000), wk =   0.0327869
        k(   48) = (   0.2833333   0.0000000   0.0000000), wk =   0.0327869
        k(   49) = (   0.3000000   0.0000000   0.0000000), wk =   0.0327869
        k(   50) = (   0.3166667   0.0000000   0.0000000), wk =   0.0327869
        k(   51) = (   0.3333333   0.0000000   0.0000000), wk =   0.0327869
        k(   52) = (   0.3500000   0.0000000   0.0000000), wk =   0.0327869
        k(   53) = (   0.3666667   0.0000000   0.0000000), wk =   0.0327869
        k(   54) = (   0.3833333   0.0000000   0.0000000), wk =   0.0327869
        k(   55) = (   0.4000000   0.0000000   0.0000000), wk =   0.0327869
        k(   56) = (   0.4166667   0.0000000   0.0000000), wk =   0.0327869
        k(   57) = (   0.4333333   0.0000000   0.0000000), wk =   0.0327869
        k(   58) = (   0.4500000   0.0000000   0.0000000), wk =   0.0327869
        k(   59) = (   0.4666667   0.0000000   0.0000000), wk =   0.0327869
        k(   60) = (   0.4833333   0.0000000   0.0000000), wk =   0.0327869
        k(   61) = (   0.5000000   0.0000000   0.0000000), wk =   0.0327869

     Dense  grid:   436185 G-vectors     FFT dimensions: (  48,  90, 216)

     Smooth grid:   145025 G-vectors     FFT dimensions: (  36,  60, 144)

     Dynamical RAM for                 wfc:      16.59 MB

     Dynamical RAM for     wfc (w. buffer):      16.59 MB

     Dynamical RAM for           str. fact:      13.31 MB

     Dynamical RAM for           local pot:       0.00 MB

     Dynamical RAM for          nlocal pot:      33.73 MB

     Dynamical RAM for                qrad:       7.05 MB

     Dynamical RAM for          rho,v,vnew:      41.32 MB

     Dynamical RAM for           G-vectors:      26.07 MB

     Dynamical RAM for          h,s,v(r/c):       2.64 MB

     Dynamical RAM for          <psi|beta>:       0.11 MB

     Dynamical RAM for                 psi:      66.36 MB

     Dynamical RAM for                hpsi:      66.36 MB

     Dynamical RAM for      wfcinit/wfcrot:      33.26 MB

     Estimated static dynamical RAM per process >     193.63 MB

     Estimated max dynamical RAM per process >     329.10 MB

     The potential is recalculated from file :
     .\wte2.save\charge-density

     Starting wfcs are   56 randomized atomic wfcs +    4 random wfcs

     Band Structure Calculation
     Davidson diagonalization with overlap

     Computing kpt #:     1
     total cpu time spent up to now is       32.1 secs

     Computing kpt #:     2
     total cpu time spent up to now is       47.8 secs

     Computing kpt #:     3
     total cpu time spent up to now is       61.7 secs

     Computing kpt #:     4
     total cpu time spent up to now is       75.8 secs

     Computing kpt #:     5
     total cpu time spent up to now is       89.7 secs

     Computing kpt #:     6
     total cpu time spent up to now is      103.6 secs

     Computing kpt #:     7
     total cpu time spent up to now is      117.7 secs

     Computing kpt #:     8
     total cpu time spent up to now is      133.7 secs

     Computing kpt #:     9
     total cpu time spent up to now is      149.6 secs

     Computing kpt #:    10
     total cpu time spent up to now is      165.4 secs

     Computing kpt #:    11
     total cpu time spent up to now is      181.2 secs

     Computing kpt #:    12
     total cpu time spent up to now is      195.2 secs

     Computing kpt #:    13
     total cpu time spent up to now is      211.1 secs

     Computing kpt #:    14
     total cpu time spent up to now is      226.8 secs

     Computing kpt #:    15
     total cpu time spent up to now is      242.6 secs

     Computing kpt #:    16
     total cpu time spent up to now is      258.4 secs

     Computing kpt #:    17
     total cpu time spent up to now is      274.3 secs

     Computing kpt #:    18
     total cpu time spent up to now is      290.4 secs

     Computing kpt #:    19
     total cpu time spent up to now is      306.5 secs

     Computing kpt #:    20
     total cpu time spent up to now is      322.7 secs

     Computing kpt #:    21
     total cpu time spent up to now is      342.0 secs

     Computing kpt #:    22
     total cpu time spent up to now is      358.3 secs

     Computing kpt #:    23
     total cpu time spent up to now is      374.7 secs

     Computing kpt #:    24
     total cpu time spent up to now is      388.9 secs

     Computing kpt #:    25
     total cpu time spent up to now is      403.0 secs

     Computing kpt #:    26
     total cpu time spent up to now is      417.2 secs

     Computing kpt #:    27
     total cpu time spent up to now is      431.5 secs

     Computing kpt #:    28
     total cpu time spent up to now is      445.3 secs

     Computing kpt #:    29
     total cpu time spent up to now is      458.9 secs

     Computing kpt #:    30
     total cpu time spent up to now is      467.4 secs

     Computing kpt #:    31
     total cpu time spent up to now is      475.6 secs

     Computing kpt #:    32
     total cpu time spent up to now is      484.0 secs

     Computing kpt #:    33
     total cpu time spent up to now is      492.2 secs

     Computing kpt #:    34
     total cpu time spent up to now is      501.1 secs

     Computing kpt #:    35
     total cpu time spent up to now is      510.1 secs

     Computing kpt #:    36
     total cpu time spent up to now is      519.1 secs

     Computing kpt #:    37
     total cpu time spent up to now is      529.1 secs

     Computing kpt #:    38
     total cpu time spent up to now is      538.3 secs

     Computing kpt #:    39
     total cpu time spent up to now is      548.6 secs

     Computing kpt #:    40
     total cpu time spent up to now is      559.2 secs

     Computing kpt #:    41
     total cpu time spent up to now is      572.6 secs

     Computing kpt #:    42
     total cpu time spent up to now is      583.1 secs

     Computing kpt #:    43
     total cpu time spent up to now is      593.3 secs

     Computing kpt #:    44
     total cpu time spent up to now is      603.5 secs

     Computing kpt #:    45
     total cpu time spent up to now is      613.7 secs

     Computing kpt #:    46
     total cpu time spent up to now is      623.9 secs

     Computing kpt #:    47
     total cpu time spent up to now is      632.9 secs

     Computing kpt #:    48
     total cpu time spent up to now is      643.3 secs

     Computing kpt #:    49
     total cpu time spent up to now is      653.5 secs

     Computing kpt #:    50
     total cpu time spent up to now is      662.5 secs

     Computing kpt #:    51
     total cpu time spent up to now is      671.4 secs

     Computing kpt #:    52
     total cpu time spent up to now is      681.5 secs

     Computing kpt #:    53
     total cpu time spent up to now is      691.6 secs

     Computing kpt #:    54
     total cpu time spent up to now is      701.8 secs

     Computing kpt #:    55
     total cpu time spent up to now is      710.8 secs

     Computing kpt #:    56
     total cpu time spent up to now is      719.4 secs

     Computing kpt #:    57
     total cpu time spent up to now is      728.2 secs

     Computing kpt #:    58
     total cpu time spent up to now is      737.1 secs

     Computing kpt #:    59
     total cpu time spent up to now is      745.9 secs

     Computing kpt #:    60
     total cpu time spent up to now is      755.1 secs

     Computing kpt #:    61
     total cpu time spent up to now is      764.0 secs

     ethr =  1.09E-12,  avg # of iterations = 41.5

     total cpu time spent up to now is      764.0 secs

     End of band structure calculation

          k =-0.5000 0.0000 0.0000 ( 18136 PWs)   bands (ev):

   -70.9180 -70.9179 -35.3205 -35.3204 -35.1433 -35.1432 -34.9265 -34.9264
   -33.6990 -33.6988 -33.6934 -33.6933 -33.6777 -33.6777 -33.6496 -33.6495
   -33.6473 -33.6472 -33.4778 -33.4773 -33.4730 -33.4724 -33.4275 -33.4268
   -33.3840 -33.3834 -33.3751 -33.3745  -7.7552  -7.7536  -7.3590  -7.3581
    -1.9870  -1.9856  -1.4157  -1.4146  -0.7212  -0.7195   0.4170   0.4173
     0.5523   0.5542   1.6575   1.6593   1.7239   1.7257   4.8310   4.8335
     5.0478   5.0490   5.3865   5.3882   7.2388   7.2416   8.4983   8.4998
     8.6185   8.6213   9.5734   9.5745

          k =-0.4833 0.0000 0.0000 ( 18152 PWs)   bands (ev):

   -70.9188 -70.9171 -35.3213 -35.3192 -35.1446 -35.1419 -34.9318 -34.9212
   -33.6990 -33.6989 -33.6933 -33.6929 -33.6781 -33.6780 -33.6502 -33.6499
   -33.6481 -33.6469 -33.4779 -33.4773 -33.4729 -33.4723 -33.4279 -33.4269
   -33.3844 -33.3838 -33.3756 -33.3748  -7.7963  -7.7351  -7.3819  -7.3248
    -2.0276  -1.9373  -1.4410  -1.3811  -0.7304  -0.6992   0.3553   0.3986
     0.5677   0.6103   1.5874   1.6592   1.7451   1.7828   4.8036   4.8430
     5.0322   5.0714   5.3383   5.4435   7.2184   7.2497   8.4018   8.5422
     8.5673   8.7482   9.4535   9.6729

          k =-0.4667 0.0000 0.0000 ( 18124 PWs)   bands (ev):

   -70.9197 -70.9162 -35.3217 -35.3175 -35.1459 -35.1404 -34.9373 -34.9160
   -33.6989 -33.6986 -33.6932 -33.6926 -33.6777 -33.6773 -33.6502 -33.6498
   -33.6483 -33.6462 -33.4777 -33.4771 -33.4728 -33.4721 -33.4276 -33.4261
   -33.3842 -33.3835 -33.3755 -33.3745  -7.8588  -7.7358  -7.3958  -7.2840
    -2.0578  -1.8846  -1.4607  -1.3370  -0.7287  -0.6679   0.2711   0.3279
     0.6222   0.6839   1.5121   1.6323   1.7820   1.8735   4.7548   4.8391
     5.0295   5.0922   5.3032   5.5020   7.1824   7.2492   8.2905   8.5078
     8.6189   8.9024   9.3395   9.7144

          k =-0.4500 0.0000 0.0000 ( 18130 PWs)   bands (ev):

   -70.9206 -70.9154 -35.3216 -35.3154 -35.1471 -35.1389 -34.9427 -34.9110
   -33.6988 -33.6985 -33.6936 -33.6929 -33.6777 -33.6772 -33.6505 -33.6500
   -33.6489 -33.6458 -33.4778 -33.4772 -33.4730 -33.4724 -33.4278 -33.4258
   -33.3842 -33.3836 -33.3757 -33.3747  -7.9373  -7.7519  -7.4037  -7.2416
    -2.0744  -1.8319  -1.4760  -1.2823  -0.7145  -0.6279   0.1831   0.2492
     0.6694   0.7586   1.4490   1.6050   1.8237   1.9676   4.6871   4.8228
     5.0423   5.1012   5.2910   5.5590   7.1316   7.2406   8.1841   8.5007
     8.6498   9.0602   9.2607   9.6900

          k =-0.4333 0.0000 0.0000 ( 18132 PWs)   bands (ev):

   -70.9216 -70.9145 -35.3210 -35.3130 -35.1484 -35.1373 -34.9482 -34.9061
   -33.6989 -33.6988 -33.6940 -33.6932 -33.6772 -33.6772 -33.6506 -33.6502
   -33.6493 -33.6454 -33.4780 -33.4773 -33.4735 -33.4729 -33.4277 -33.4254
   -33.3842 -33.3835 -33.3759 -33.3746  -8.0270  -7.7790  -7.4095  -7.2021
    -2.0758  -1.7821  -1.4882  -1.2193  -0.6861  -0.5815   0.0974   0.1719
     0.6972   0.8318   1.4043   1.5799   1.8690   2.0609   4.6048   4.7965
     5.0689   5.0923   5.3072   5.6113   7.0678   7.2250   8.0873   8.5163
     8.6433   9.1453   9.3059   9.6261

          k =-0.4167 0.0000 0.0000 ( 18144 PWs)   bands (ev):

   -70.9225 -70.9137 -35.3200 -35.3102 -35.1495 -35.1357 -34.9538 -34.9014
   -33.6992 -33.6991 -33.6942 -33.6937 -33.6775 -33.6772 -33.6508 -33.6505
   -33.6498 -33.6451 -33.4785 -33.4776 -33.4740 -33.4732 -33.4281 -33.4252
   -33.3843 -33.3835 -33.3761 -33.3746  -8.1240  -7.8139  -7.4155  -7.1688
    -2.0619  -1.7365  -1.4977  -1.1544  -0.6408  -0.5324   0.0193   0.1013
     0.7017   0.9028   1.3811   1.5580   1.9175   2.1519   4.5119   4.7644
     5.0691   5.1069   5.3466   5.6562   6.9946   7.2026   8.0006   8.5521
     8.5918   9.1617   9.4682   9.5438

          k =-0.4000 0.0000 0.0000 ( 18158 PWs)   bands (ev):

   -70.9234 -70.9129 -35.3186 -35.3071 -35.1506 -35.1340 -34.9593 -34.8969
   -33.6992 -33.6991 -33.6950 -33.6942 -33.6778 -33.6775 -33.6510 -33.6506
   -33.6503 -33.6450 -33.4787 -33.4778 -33.4746 -33.4738 -33.4283 -33.4253
   -33.3844 -33.3834 -33.3764 -33.3745  -8.2257  -7.8546  -7.4234  -7.1436
    -2.0339  -1.6950  -1.5040  -1.0980  -0.5748  -0.4871  -0.0445   0.0429
     0.6848   0.9714   1.3778   1.5405   1.9683   2.2393   4.4118   4.7308
     5.0383   5.1535   5.4008   5.6914   6.9167   7.1736   7.9239   8.5084
     8.6051   9.1886   9.4523   9.6325

          k =-0.3833 0.0000 0.0000 ( 18156 PWs)   bands (ev):

   -70.9243 -70.9121 -35.3167 -35.3037 -35.1517 -35.1323 -34.9648 -34.8926
   -33.6996 -33.6992 -33.6957 -33.6944 -33.6774 -33.6774 -33.6512 -33.6508
   -33.6507 -33.6446 -33.4788 -33.4781 -33.4752 -33.4745 -33.4282 -33.4247
   -33.3844 -33.3834 -33.3766 -33.3745  -8.3300  -7.8994  -7.4339  -7.1273
    -1.9953  -1.6571  -1.5046  -1.0613  -0.4866  -0.4556  -0.0839   0.0032
     0.6533   1.0379   1.3889   1.5290   2.0207   2.3223   4.3073   4.6997
     5.0041   5.2061   5.4644   5.7150   6.8384   7.1381   7.8576   8.4099
     8.6721   9.2113   9.3558   9.7443

          k =-0.3667 0.0000 0.0000 ( 18140 PWs)   bands (ev):

   -70.9252 -70.9114 -35.3144 -35.3001 -35.1528 -35.1304 -34.9702 -34.8885
   -33.6993 -33.6991 -33.6961 -33.6946 -33.6773 -33.6771 -33.6513 -33.6512
   -33.6509 -33.6442 -33.4787 -33.4781 -33.4756 -33.4750 -33.4279 -33.4243
   -33.3842 -33.3833 -33.3767 -33.3743  -8.4355  -7.9473  -7.4473  -7.1201
    -1.9530  -1.6222  -1.4942  -1.0511  -0.4483  -0.3810  -0.0895  -0.0094
     0.6160   1.1022   1.4080   1.5255   2.0735   2.4003   4.2007   4.6737
     4.9696   5.2613   5.5339   5.7256   6.7635   7.0968   7.8029   8.3064
     8.7499   9.2106   9.2561   9.7894

          k =-0.3500 0.0000 0.0000 ( 18146 PWs)   bands (ev):

   -70.9260 -70.9107 -35.3118 -35.2963 -35.1538 -35.1285 -34.9756 -34.8846
   -33.6995 -33.6993 -33.6967 -33.6949 -33.6775 -33.6773 -33.6519 -33.6517
   -33.6512 -33.6436 -33.4789 -33.4783 -33.4763 -33.4757 -33.4280 -33.4242
   -33.3842 -33.3832 -33.3769 -33.3742  -8.5410  -7.9972  -7.4636  -7.1217
    -1.9182  -1.5901  -1.4634  -1.0680  -0.4643  -0.2729  -0.0632   0.0157
     0.5816   1.1643   1.4302   1.5323   2.1258   2.4729   4.0937   4.6543
     4.9375   5.3160   5.6063   5.7224   6.6944   7.0508   7.7612   8.2026
     8.8354   9.1550   9.1795   9.8254

          k =-0.3333 0.0000 0.0000 ( 18138 PWs)   bands (ev):

   -70.9269 -70.9100 -35.3087 -35.2924 -35.1548 -35.1265 -34.9808 -34.8809
   -33.6995 -33.6993 -33.6969 -33.6949 -33.6777 -33.6771 -33.6525 -33.6518
   -33.6514 -33.6436 -33.4789 -33.4782 -33.4767 -33.4760 -33.4281 -33.4240
   -33.3843 -33.3833 -33.3772 -33.3742  -8.6455  -8.0485  -7.4826  -7.1314
    -1.9022  -1.5612  -1.4028  -1.1082  -0.4921  -0.1826  -0.0181   0.0865
     0.5608   1.2239   1.4523   1.5519   2.1766   2.5397   3.9881   4.6421
     4.9110   5.3669   5.6789   5.7058   6.6316   7.0019   7.7349   8.1008
     8.9237   9.0562   9.1238   9.8713

          k =-0.3167 0.0000 0.0000 ( 18154 PWs)   bands (ev):

   -70.9277 -70.9093 -35.3054 -35.2884 -35.1557 -35.1244 -34.9860 -34.8775
   -33.7002 -33.6999 -33.6976 -33.6954 -33.6777 -33.6772 -33.6534 -33.6520
   -33.6517 -33.6436 -33.4797 -33.4787 -33.4776 -33.4767 -33.4281 -33.4237
   -33.3846 -33.3833 -33.3775 -33.3742  -8.7482  -8.1005  -7.5041  -7.1482
    -1.9094  -1.5366  -1.3097  -1.1651  -0.5217  -0.1146   0.0343   0.1848
     0.5715   1.2808   1.4730   1.5862   2.2254   2.6005   3.8851   4.6363
     4.8934   5.4114   5.6776   5.7487   6.5742   6.9527   7.7257   8.0020
     8.9359   9.0378   9.0534   9.9204

          k =-0.3000 0.0000 0.0000 ( 18146 PWs)   bands (ev):

   -70.9286 -70.9087 -35.3017 -35.2844 -35.1567 -35.1222 -34.9911 -34.8743
   -33.7005 -33.7003 -33.6980 -33.6953 -33.6780 -33.6769 -33.6540 -33.6520
   -33.6517 -33.6433 -33.4802 -33.4791 -33.4780 -33.4772 -33.4281 -33.4231
   -33.3846 -33.3831 -33.3776 -33.3741  -8.8484  -8.1525  -7.5276  -7.1712
    -1.9366  -1.5185  -1.2315  -1.1891  -0.5481  -0.0579   0.0875   0.2656
     0.6417   1.3349   1.4919   1.6360   2.2719   2.6555   3.7859   4.6354
     4.8885   5.4470   5.6410   5.8123   6.5200   6.9060   7.7345   7.9069
     8.8401   8.9755   9.1320   9.9623

          k =-0.2833 0.0000 0.0000 ( 18142 PWs)   bands (ev):

   -70.9294 -70.9081 -35.2978 -35.2804 -35.1576 -35.1199 -34.9960 -34.8713
   -33.7011 -33.7006 -33.6979 -33.6952 -33.6781 -33.6768 -33.6547 -33.6522
   -33.6519 -33.6432 -33.4807 -33.4798 -33.4780 -33.4774 -33.4279 -33.4229
   -33.3847 -33.3830 -33.3779 -33.3741  -8.9455  -8.2041  -7.5527  -7.1991
    -1.9781  -1.5121  -1.2979  -1.0489  -0.5687  -0.0067   0.1392   0.3099
     0.7779   1.3867   1.5091   1.7004   2.3164   2.7046   3.6916   4.6376
     4.8994   5.4712   5.6012   5.8657   6.4667   6.8654   7.7605   7.8159
     8.7406   8.8942   9.2352   9.9859

          k =-0.2667 0.0000 0.0000 ( 18138 PWs)   bands (ev):

   -70.9301 -70.9075 -35.2937 -35.2764 -35.1584 -35.1174 -35.0008 -34.8686
   -33.7021 -33.7011 -33.6977 -33.6949 -33.6784 -33.6767 -33.6552 -33.6525
   -33.6521 -33.6430 -33.4815 -33.4807 -33.4780 -33.4774 -33.4278 -33.4224
   -33.3848 -33.3828 -33.3782 -33.3740  -9.0392  -8.2548  -7.5790  -7.2308
    -2.0291  -1.5280  -1.3505  -0.8983  -0.5803   0.0391   0.1891   0.3383
     0.9535   1.4369   1.5255   1.7768   2.3598   2.7481   3.6030   4.6418
     4.9282   5.4784   5.5674   5.9049   6.4127   6.8339   7.7294   7.8010
     8.6427   8.8120   9.3436   9.9766

          k =-0.2500 0.0000 0.0000 ( 18122 PWs)   bands (ev):

   -70.9309 -70.9070 -35.2894 -35.2726 -35.1593 -35.1148 -35.0055 -34.8662
   -33.7030 -33.7013 -33.6973 -33.6949 -33.6784 -33.6762 -33.6557 -33.6527
   -33.6523 -33.6427 -33.4822 -33.4813 -33.4780 -33.4771 -33.4274 -33.4219
   -33.3847 -33.3827 -33.3784 -33.3739  -9.1288  -8.3041  -7.6061  -7.2654
    -2.0863  -1.5752  -1.3780  -0.7580  -0.5682   0.0786   0.2389   0.3678
     1.1452   1.4860   1.5426   1.8617   2.4038   2.7863   3.5213   4.6485
     4.9751   5.4608   5.5512   5.9266   6.3576   6.8137   7.6482   7.8514
     8.5480   8.7302   9.4578   9.9246

          k =-0.2333 0.0000 0.0000 ( 18118 PWs)   bands (ev):

   -70.9316 -70.9065 -35.2850 -35.2689 -35.1601 -35.1121 -35.0101 -34.8640
   -33.7038 -33.7015 -33.6969 -33.6947 -33.6788 -33.6761 -33.6563 -33.6531
   -33.6523 -33.6426 -33.4829 -33.4820 -33.4780 -33.4769 -33.4273 -33.4218
   -33.3848 -33.3827 -33.3786 -33.3738  -9.2141  -8.3518  -7.6335  -7.3017
    -2.1470  -1.6441  -1.3882  -0.6880  -0.4778   0.1127   0.2909   0.4030
     1.3379   1.5344   1.5639   1.9508   2.4511   2.8195   3.4476   4.6588
     5.0392   5.4276   5.5471   5.9295   6.3027   6.8046   7.5729   7.9058
     8.4574   8.6497   9.5789   9.8431

          k =-0.2167 0.0000 0.0000 ( 18108 PWs)   bands (ev):

   -70.9323 -70.9060 -35.2806 -35.2655 -35.1610 -35.1093 -35.0145 -34.8620
   -33.7047 -33.7021 -33.6968 -33.6945 -33.6793 -33.6759 -33.6568 -33.6530
   -33.6520 -33.6422 -33.4839 -33.4829 -33.4778 -33.4770 -33.4271 -33.4214
   -33.3847 -33.3823 -33.3786 -33.3736  -9.2947  -8.3975  -7.6607  -7.3388
    -2.2091  -1.7209  -1.3931  -0.6811  -0.3221   0.1436   0.3482   0.4423
     1.5025   1.5820   1.6101   2.0397   2.5064   2.8479   3.3834   4.6740
     5.1192   5.3926   5.5437   5.9151   6.2503   6.8035   7.5043   7.9576
     8.3726   8.5711   9.7075   9.7506

          k =-0.2000 0.0000 0.0000 ( 18116 PWs)   bands (ev):

   -70.9329 -70.9055 -35.2761 -35.2622 -35.1618 -35.1063 -35.0188 -34.8602
   -33.7057 -33.7028 -33.6967 -33.6945 -33.6795 -33.6758 -33.6576 -33.6533
   -33.6523 -33.6423 -33.4848 -33.4840 -33.4779 -33.4769 -33.4270 -33.4211
   -33.3849 -33.3825 -33.3790 -33.3736  -9.3703  -8.4408  -7.6875  -7.3760
    -2.2711  -1.7987  -1.3980  -0.6900  -0.1545   0.1739   0.4142   0.4824
     1.5674   1.6291   1.7435   2.1241   2.5762   2.8717   3.3304   4.6946
     5.2140   5.3610   5.5371   5.8866   6.2043   6.8055   7.4430   7.9987
     8.2968   8.4952   9.6561   9.8427

          k =-0.1833 0.0000 0.0000 ( 18098 PWs)   bands (ev):

   -70.9335 -70.9051 -35.2717 -35.2592 -35.1626 -35.1032 -35.0229 -34.8587
   -33.7060 -33.7028 -33.6960 -33.6942 -33.6797 -33.6755 -33.6581 -33.6535
   -33.6524 -33.6419 -33.4853 -33.4842 -33.4776 -33.4766 -33.4268 -33.4206
   -33.3849 -33.3823 -33.3791 -33.3735  -9.4407  -8.4816  -7.7134  -7.4125
    -2.3316  -1.8745  -1.4046  -0.7038   0.0073   0.2047   0.4925   0.5206
     1.5941   1.6756   1.8924   2.1998   2.6690   2.8907   3.2905   4.7206
     5.3225   5.3337   5.5260   5.8487   6.1695   6.8053   7.3895   8.0186
     8.2366   8.4223   9.5635   9.9816

          k =-0.1667 0.0000 0.0000 ( 18096 PWs)   bands (ev):

   -70.9341 -70.9048 -35.2674 -35.2564 -35.1634 -35.1000 -35.0270 -34.8573
   -33.7066 -33.7032 -33.6962 -33.6943 -33.6798 -33.6753 -33.6585 -33.6538
   -33.6525 -33.6417 -33.4863 -33.4845 -33.4777 -33.4769 -33.4265 -33.4202
   -33.3849 -33.3823 -33.3793 -33.3734  -9.5056  -8.5196  -7.7381  -7.4476
    -2.3895  -1.9464  -1.4131  -0.7198   0.1542   0.2363   0.5557   0.5857
     1.6156   1.7217   2.0148   2.2638   2.7910   2.9057   3.2652   4.7512
     5.3091   5.4439   5.5098   5.8060   6.1518   6.7990   7.3433   8.0051
     8.2010   8.3529   9.4746  10.0371

          k =-0.1500 0.0000 0.0000 ( 18080 PWs)   bands (ev):

   -70.9346 -70.9044 -35.2632 -35.2540 -35.1641 -35.0967 -35.0309 -34.8562
   -33.7070 -33.7035 -33.6956 -33.6937 -33.6803 -33.6753 -33.6590 -33.6537
   -33.6525 -33.6416 -33.4868 -33.4852 -33.4773 -33.4763 -33.4264 -33.4200
   -33.3848 -33.3821 -33.3793 -33.3732  -9.5650  -8.5545  -7.7613  -7.4809
    -2.4441  -2.0134  -1.4231  -0.7369   0.2679   0.2816   0.5874   0.6924
     1.6349   1.7674   2.1061   2.3151   2.9179   2.9414   3.2542   4.7843
     5.2841   5.4886   5.5760   5.7639   6.1565   6.7849   7.3031   7.9612
     8.1853   8.2872   9.3901   9.9854

          k =-0.1333 0.0000 0.0000 ( 18059 PWs)   bands (ev):

   -70.9350 -70.9041 -35.2593 -35.2518 -35.1649 -35.0934 -35.0348 -34.8552
   -33.7079 -33.7037 -33.6953 -33.6935 -33.6803 -33.6747 -33.6593 -33.6533
   -33.6523 -33.6415 -33.4872 -33.4861 -33.4772 -33.4760 -33.4260 -33.4195
   -33.3847 -33.3817 -33.3794 -33.3728  -9.6185  -8.5862  -7.7828  -7.5118
    -2.4944  -2.0749  -1.4341  -0.7544   0.2983   0.3910   0.6163   0.8053
     1.6516   1.8119   2.1714   2.3555   2.9295   3.1124   3.2556   4.8164
     5.2547   5.4643   5.6977   5.7471   6.1868   6.7635   7.2667   7.9028
     8.1728   8.2251   9.3104   9.9229

          k =-0.1167 0.0000 0.0000 ( 18073 PWs)   bands (ev):

   -70.9354 -70.9039 -35.2556 -35.2498 -35.1656 -35.0899 -35.0385 -34.8544
   -33.7088 -33.7043 -33.6955 -33.6937 -33.6806 -33.6746 -33.6597 -33.6536
   -33.6526 -33.6415 -33.4883 -33.4869 -33.4773 -33.4763 -33.4260 -33.4193
   -33.3847 -33.3818 -33.3795 -33.3730  -9.6660  -8.6145  -7.8023  -7.5400
    -2.5401  -2.1301  -1.4455  -0.7716   0.3261   0.4869   0.6432   0.9134
     1.6651   1.8526   2.2185   2.3909   2.9418   3.2664   3.2941   4.8420
     5.2177   5.4401   5.6880   5.8802   6.2425   6.7367   7.2317   7.8400
     8.1540   8.1662   9.2360   9.8465

          k =-0.1000 0.0000 0.0000 ( 18073 PWs)   bands (ev):

   -70.9358 -70.9036 -35.2523 -35.2482 -35.1662 -35.0864 -35.0422 -34.8537
   -33.7093 -33.7047 -33.6952 -33.6935 -33.6806 -33.6746 -33.6602 -33.6536
   -33.6526 -33.6417 -33.4887 -33.4876 -33.4774 -33.4758 -33.4259 -33.4190
   -33.3849 -33.3818 -33.3799 -33.3730  -9.7075  -8.6394  -7.8196  -7.5650
    -2.5806  -2.1787  -1.4566  -0.7878   0.3500   0.5736   0.6689   1.0071
     1.6751   1.8846   2.2532   2.4298   2.9547   3.2833   3.4784   4.8541
     5.1722   5.4187   5.6744   6.0387   6.3198   6.7072   7.1964   7.7772
     8.1096   8.1266   9.1671   9.7523

          k =-0.0833 0.0000 0.0000 ( 18079 PWs)   bands (ev):

   -70.9361 -70.9034 -35.2493 -35.2468 -35.1668 -35.0829 -35.0458 -34.8532
   -33.7097 -33.7054 -33.6955 -33.6935 -33.6805 -33.6747 -33.6604 -33.6537
   -33.6528 -33.6419 -33.4894 -33.4882 -33.4774 -33.4761 -33.4260 -33.4186
   -33.3850 -33.3817 -33.3801 -33.3729  -9.7427  -8.6606  -7.8345  -7.5867
    -2.6154  -2.2204  -1.4669  -0.8025   0.3695   0.6533   0.6935   1.0811
     1.6817   1.9033   2.2793   2.4794   2.9668   3.3038   3.6595   4.8460
     5.1205   5.4013   5.6783   6.2013   6.4123   6.6776   7.1600   7.7166
     8.0545   8.0921   9.1042   9.6387

          k =-0.0667 0.0000 0.0000 ( 18095 PWs)   bands (ev):

   -70.9364 -70.9033 -35.2469 -35.2457 -35.1673 -35.0793 -35.0494 -34.8527
   -33.7103 -33.7062 -33.6955 -33.6931 -33.6808 -33.6751 -33.6606 -33.6540
   -33.6531 -33.6419 -33.4901 -33.4891 -33.4772 -33.4760 -33.4262 -33.4187
   -33.3852 -33.3818 -33.3805 -33.3729  -9.7717  -8.6781  -7.8469  -7.6047
    -2.6443  -2.2548  -1.4760  -0.8152   0.3844   0.7164   0.7260   1.1339
     1.6853   1.9076   2.2989   2.5400   2.9766   3.3258   3.8333   4.8141
     5.0669   5.3876   5.6996   6.3627   6.5119   6.6501   7.1226   7.6604
     8.0003   8.0539   9.0481   9.5121

          k =-0.0500 0.0000 0.0000 ( 18095 PWs)   bands (ev):

   -70.9366 -70.9031 -35.2449 -35.2449 -35.1678 -35.0759 -35.0529 -34.8524
   -33.7110 -33.7067 -33.6951 -33.6928 -33.6811 -33.6749 -33.6608 -33.6540
   -33.6531 -33.6418 -33.4906 -33.4899 -33.4768 -33.4759 -33.4261 -33.4187
   -33.3851 -33.3818 -33.3805 -33.3729  -9.7943  -8.6917  -7.8567  -7.6189
    -2.6671  -2.2817  -1.4834  -0.8254   0.3951   0.7364   0.7900   1.1674
     1.6867   1.9014   2.3133   2.6049   2.9827   3.3471   3.9964   4.7592
     5.0169   5.3772   5.7321   6.5155   6.6083   6.6266   7.0852   7.6111
     7.9477   8.0162   8.9998   9.3881

          k =-0.0333 0.0000 0.0000 ( 18101 PWs)   bands (ev):

   -70.9367 -70.9030 -35.2443 -35.2434 -35.1681 -35.0725 -35.0562 -34.8522
   -33.7111 -33.7065 -33.6956 -33.6926 -33.6814 -33.6750 -33.6608 -33.6542
   -33.6535 -33.6418 -33.4908 -33.4897 -33.4768 -33.4762 -33.4262 -33.4188
   -33.3853 -33.3819 -33.3806 -33.3730  -9.8105  -8.7015  -7.8637  -7.6292
    -2.6834  -2.3011  -1.4889  -0.8330   0.4021   0.7520   0.8417   1.1854
     1.6869   1.8911   2.3231   2.6634   2.9848   3.3654   4.1450   4.6859
     4.9756   5.3698   5.7662   6.6085   6.6495   6.6903   7.0491   7.5720
     7.9000   7.9838   8.9608   9.2852

          k =-0.0167 0.0000 0.0000 ( 18083 PWs)   bands (ev):

   -70.9368 -70.9030 -35.2439 -35.2425 -35.1683 -35.0695 -35.0592 -34.8521
   -33.7111 -33.7061 -33.6952 -33.6924 -33.6814 -33.6747 -33.6609 -33.6541
   -33.6534 -33.6418 -33.4905 -33.4897 -33.4766 -33.4760 -33.4261 -33.4185
   -33.3852 -33.3818 -33.3806 -33.3729  -9.8202  -8.7074  -7.8679  -7.6353
    -2.6933  -2.3128  -1.4923  -0.8376   0.4060   0.7621   0.8762   1.1927
     1.6866   1.8823   2.3289   2.7045   2.9842   3.3780   4.2701   4.6052
     4.9484   5.3653   5.7917   6.5974   6.7459   6.7488   7.0176   7.5467
     7.8645   7.9615   8.9344   9.2184

          k = 0.0000 0.0000 0.0000 ( 18079 PWs)   bands (ev):

   -70.9368 -70.9030 -35.2438 -35.2422 -35.1683 -35.0680 -35.0607 -34.8520
   -33.7112 -33.7059 -33.6952 -33.6921 -33.6812 -33.6747 -33.6610 -33.6539
   -33.6533 -33.6421 -33.4904 -33.4898 -33.4765 -33.4759 -33.4259 -33.4185
   -33.3852 -33.3819 -33.3806 -33.3729  -9.8234  -8.7094  -7.8694  -7.6374
    -2.6966  -2.3166  -1.4934  -0.8391   0.4073   0.7655   0.8886   1.1944
     1.6864   1.8789   2.3308   2.7194   2.9835   3.3825   4.3318   4.5580
     4.9388   5.3638   5.8011   6.5936   6.7658   6.7885   7.0025   7.5379
     7.8511   7.9536   8.9247   9.1954

          k = 0.0167 0.0000 0.0000 ( 18083 PWs)   bands (ev):

   -70.9368 -70.9030 -35.2439 -35.2425 -35.1683 -35.0695 -35.0592 -34.8521
   -33.7111 -33.7061 -33.6952 -33.6924 -33.6814 -33.6747 -33.6609 -33.6541
   -33.6534 -33.6418 -33.4905 -33.4897 -33.4766 -33.4760 -33.4261 -33.4185
   -33.3852 -33.3818 -33.3806 -33.3729  -9.8202  -8.7074  -7.8679  -7.6353
    -2.6933  -2.3128  -1.4923  -0.8376   0.4060   0.7621   0.8762   1.1927
     1.6866   1.8823   2.3289   2.7045   2.9842   3.3780   4.2701   4.6052
     4.9484   5.3653   5.7917   6.5974   6.7459   6.7488   7.0176   7.5467
     7.8645   7.9615   8.9344   9.2184

          k = 0.0333 0.0000 0.0000 ( 18101 PWs)   bands (ev):

   -70.9367 -70.9030 -35.2443 -35.2434 -35.1681 -35.0725 -35.0562 -34.8522
   -33.7111 -33.7065 -33.6956 -33.6926 -33.6814 -33.6750 -33.6608 -33.6542
   -33.6535 -33.6418 -33.4908 -33.4897 -33.4768 -33.4762 -33.4262 -33.4188
   -33.3853 -33.3819 -33.3806 -33.3730  -9.8105  -8.7015  -7.8637  -7.6292
    -2.6834  -2.3011  -1.4889  -0.8330   0.4021   0.7520   0.8417   1.1854
     1.6869   1.8911   2.3231   2.6634   2.9848   3.3654   4.1450   4.6859
     4.9756   5.3698   5.7662   6.6085   6.6495   6.6903   7.0491   7.5720
     7.9000   7.9838   8.9608   9.2852

          k = 0.0500 0.0000 0.0000 ( 18095 PWs)   bands (ev):

   -70.9366 -70.9031 -35.2449 -35.2449 -35.1678 -35.0759 -35.0529 -34.8524
   -33.7110 -33.7067 -33.6951 -33.6928 -33.6811 -33.6749 -33.6608 -33.6540
   -33.6531 -33.6418 -33.4906 -33.4899 -33.4768 -33.4759 -33.4261 -33.4187
   -33.3851 -33.3818 -33.3805 -33.3729  -9.7943  -8.6917  -7.8567  -7.6189
    -2.6671  -2.2817  -1.4834  -0.8254   0.3951   0.7364   0.7900   1.1674
     1.6867   1.9014   2.3133   2.6049   2.9827   3.3471   3.9964   4.7592
     5.0169   5.3772   5.7321   6.5155   6.6083   6.6266   7.0852   7.6111
     7.9477   8.0162   8.9998   9.3881

          k = 0.0667 0.0000 0.0000 ( 18095 PWs)   bands (ev):

   -70.9364 -70.9033 -35.2469 -35.2457 -35.1673 -35.0793 -35.0494 -34.8527
   -33.7103 -33.7062 -33.6955 -33.6931 -33.6808 -33.6751 -33.6606 -33.6540
   -33.6531 -33.6419 -33.4901 -33.4891 -33.4772 -33.4760 -33.4262 -33.4187
   -33.3852 -33.3818 -33.3805 -33.3729  -9.7717  -8.6781  -7.8469  -7.6047
    -2.6443  -2.2548  -1.4760  -0.8152   0.3844   0.7164   0.7260   1.1339
     1.6853   1.9076   2.2989   2.5400   2.9766   3.3258   3.8333   4.8141
     5.0669   5.3876   5.6996   6.3627   6.5119   6.6501   7.1226   7.6604
     8.0003   8.0539   9.0481   9.5121

          k = 0.0833 0.0000 0.0000 ( 18079 PWs)   bands (ev):

   -70.9361 -70.9034 -35.2493 -35.2468 -35.1668 -35.0829 -35.0458 -34.8532
   -33.7097 -33.7054 -33.6955 -33.6935 -33.6805 -33.6747 -33.6604 -33.6537
   -33.6528 -33.6419 -33.4894 -33.4882 -33.4774 -33.4761 -33.4260 -33.4186
   -33.3850 -33.3817 -33.3801 -33.3729  -9.7427  -8.6606  -7.8345  -7.5867
    -2.6154  -2.2204  -1.4669  -0.8025   0.3695   0.6533   0.6935   1.0811
     1.6817   1.9033   2.2793   2.4794   2.9668   3.3038   3.6595   4.8460
     5.1205   5.4013   5.6783   6.2013   6.4123   6.6776   7.1600   7.7166
     8.0545   8.0921   9.1042   9.6387

          k = 0.1000 0.0000 0.0000 ( 18073 PWs)   bands (ev):

   -70.9358 -70.9036 -35.2523 -35.2482 -35.1662 -35.0864 -35.0422 -34.8537
   -33.7093 -33.7047 -33.6952 -33.6935 -33.6806 -33.6746 -33.6602 -33.6536
   -33.6526 -33.6417 -33.4887 -33.4876 -33.4774 -33.4758 -33.4259 -33.4190
   -33.3849 -33.3818 -33.3799 -33.3730  -9.7075  -8.6394  -7.8196  -7.5650
    -2.5806  -2.1787  -1.4566  -0.7878   0.3500   0.5736   0.6689   1.0071
     1.6751   1.8846   2.2532   2.4298   2.9547   3.2833   3.4784   4.8541
     5.1722   5.4187   5.6744   6.0387   6.3198   6.7072   7.1964   7.7772
     8.1096   8.1266   9.1671   9.7523

          k = 0.1167 0.0000 0.0000 ( 18073 PWs)   bands (ev):

   -70.9354 -70.9039 -35.2556 -35.2498 -35.1656 -35.0899 -35.0385 -34.8544
   -33.7088 -33.7043 -33.6955 -33.6937 -33.6806 -33.6746 -33.6597 -33.6536
   -33.6526 -33.6415 -33.4883 -33.4869 -33.4773 -33.4763 -33.4260 -33.4193
   -33.3847 -33.3818 -33.3795 -33.3730  -9.6660  -8.6145  -7.8023  -7.5400
    -2.5401  -2.1301  -1.4455  -0.7716   0.3261   0.4869   0.6432   0.9134
     1.6651   1.8526   2.2185   2.3909   2.9418   3.2664   3.2941   4.8420
     5.2177   5.4401   5.6880   5.8802   6.2425   6.7367   7.2317   7.8400
     8.1540   8.1662   9.2360   9.8465

          k = 0.1333 0.0000 0.0000 ( 18059 PWs)   bands (ev):

   -70.9350 -70.9041 -35.2593 -35.2518 -35.1649 -35.0934 -35.0348 -34.8552
   -33.7079 -33.7037 -33.6953 -33.6935 -33.6803 -33.6747 -33.6593 -33.6533
   -33.6523 -33.6415 -33.4872 -33.4861 -33.4772 -33.4760 -33.4260 -33.4195
   -33.3847 -33.3817 -33.3794 -33.3728  -9.6185  -8.5862  -7.7828  -7.5118
    -2.4944  -2.0749  -1.4341  -0.7544   0.2983   0.3910   0.6163   0.8053
     1.6516   1.8119   2.1714   2.3555   2.9295   3.1124   3.2556   4.8164
     5.2547   5.4643   5.6977   5.7471   6.1868   6.7635   7.2667   7.9028
     8.1728   8.2251   9.3104   9.9229

          k = 0.1500 0.0000 0.0000 ( 18080 PWs)   bands (ev):

   -70.9346 -70.9044 -35.2632 -35.2540 -35.1641 -35.0967 -35.0309 -34.8562
   -33.7070 -33.7035 -33.6956 -33.6937 -33.6803 -33.6753 -33.6590 -33.6537
   -33.6525 -33.6416 -33.4868 -33.4852 -33.4773 -33.4763 -33.4264 -33.4200
   -33.3848 -33.3821 -33.3793 -33.3732  -9.5650  -8.5545  -7.7613  -7.4809
    -2.4441  -2.0134  -1.4231  -0.7369   0.2679   0.2816   0.5874   0.6924
     1.6349   1.7674   2.1061   2.3151   2.9179   2.9414   3.2542   4.7843
     5.2841   5.4886   5.5760   5.7639   6.1565   6.7849   7.3031   7.9612
     8.1853   8.2872   9.3901   9.9854

          k = 0.1667 0.0000 0.0000 ( 18096 PWs)   bands (ev):

   -70.9341 -70.9048 -35.2674 -35.2564 -35.1634 -35.1000 -35.0270 -34.8573
   -33.7066 -33.7032 -33.6962 -33.6943 -33.6798 -33.6753 -33.6585 -33.6538
   -33.6525 -33.6417 -33.4863 -33.4845 -33.4777 -33.4769 -33.4265 -33.4202
   -33.3849 -33.3823 -33.3793 -33.3734  -9.5056  -8.5196  -7.7381  -7.4476
    -2.3895  -1.9464  -1.4131  -0.7198   0.1542   0.2363   0.5557   0.5857
     1.6156   1.7217   2.0148   2.2638   2.7910   2.9057   3.2652   4.7512
     5.3091   5.4439   5.5098   5.8060   6.1518   6.7990   7.3433   8.0051
     8.2010   8.3529   9.4746  10.0371

          k = 0.1833 0.0000 0.0000 ( 18098 PWs)   bands (ev):

   -70.9335 -70.9051 -35.2717 -35.2592 -35.1626 -35.1032 -35.0229 -34.8587
   -33.7060 -33.7028 -33.6960 -33.6942 -33.6797 -33.6755 -33.6581 -33.6535
   -33.6524 -33.6419 -33.4853 -33.4842 -33.4776 -33.4766 -33.4268 -33.4206
   -33.3849 -33.3823 -33.3791 -33.3735  -9.4407  -8.4816  -7.7134  -7.4125
    -2.3316  -1.8745  -1.4046  -0.7038   0.0073   0.2047   0.4925   0.5206
     1.5941   1.6756   1.8924   2.1998   2.6690   2.8907   3.2905   4.7206
     5.3225   5.3337   5.5260   5.8487   6.1695   6.8053   7.3895   8.0186
     8.2366   8.4223   9.5635   9.9816

          k = 0.2000 0.0000 0.0000 ( 18116 PWs)   bands (ev):

   -70.9329 -70.9055 -35.2761 -35.2622 -35.1618 -35.1063 -35.0188 -34.8602
   -33.7057 -33.7028 -33.6967 -33.6945 -33.6795 -33.6758 -33.6576 -33.6533
   -33.6523 -33.6423 -33.4848 -33.4840 -33.4779 -33.4769 -33.4270 -33.4211
   -33.3849 -33.3825 -33.3790 -33.3736  -9.3703  -8.4408  -7.6875  -7.3760
    -2.2711  -1.7987  -1.3980  -0.6900  -0.1545   0.1739   0.4142   0.4824
     1.5674   1.6291   1.7435   2.1241   2.5762   2.8717   3.3304   4.6946
     5.2140   5.3610   5.5371   5.8866   6.2043   6.8055   7.4430   7.9987
     8.2968   8.4952   9.6561   9.8427

          k = 0.2167 0.0000 0.0000 ( 18108 PWs)   bands (ev):

   -70.9323 -70.9060 -35.2806 -35.2655 -35.1610 -35.1093 -35.0145 -34.8620
   -33.7047 -33.7021 -33.6968 -33.6945 -33.6793 -33.6759 -33.6568 -33.6530
   -33.6520 -33.6422 -33.4839 -33.4829 -33.4778 -33.4770 -33.4271 -33.4214
   -33.3847 -33.3823 -33.3786 -33.3736  -9.2947  -8.3975  -7.6607  -7.3388
    -2.2091  -1.7209  -1.3931  -0.6811  -0.3221   0.1436   0.3482   0.4423
     1.5025   1.5820   1.6101   2.0397   2.5064   2.8479   3.3834   4.6740
     5.1192   5.3926   5.5437   5.9151   6.2503   6.8035   7.5043   7.9576
     8.3726   8.5711   9.7075   9.7506

          k = 0.2333 0.0000 0.0000 ( 18118 PWs)   bands (ev):

   -70.9316 -70.9065 -35.2850 -35.2689 -35.1601 -35.1121 -35.0101 -34.8640
   -33.7038 -33.7015 -33.6969 -33.6947 -33.6788 -33.6761 -33.6563 -33.6531
   -33.6523 -33.6426 -33.4829 -33.4820 -33.4780 -33.4769 -33.4273 -33.4218
   -33.3848 -33.3827 -33.3786 -33.3738  -9.2141  -8.3518  -7.6335  -7.3017
    -2.1470  -1.6441  -1.3882  -0.6880  -0.4778   0.1127   0.2909   0.4030
     1.3379   1.5344   1.5639   1.9508   2.4511   2.8195   3.4476   4.6588
     5.0392   5.4276   5.5471   5.9295   6.3027   6.8046   7.5729   7.9058
     8.4574   8.6497   9.5789   9.8431

          k = 0.2500 0.0000 0.0000 ( 18122 PWs)   bands (ev):

   -70.9309 -70.9070 -35.2894 -35.2726 -35.1593 -35.1148 -35.0055 -34.8662
   -33.7030 -33.7013 -33.6973 -33.6949 -33.6784 -33.6762 -33.6557 -33.6527
   -33.6523 -33.6427 -33.4822 -33.4813 -33.4780 -33.4771 -33.4274 -33.4219
   -33.3847 -33.3827 -33.3784 -33.3739  -9.1288  -8.3041  -7.6061  -7.2654
    -2.0863  -1.5752  -1.3780  -0.7580  -0.5682   0.0786   0.2389   0.3678
     1.1452   1.4860   1.5426   1.8617   2.4038   2.7863   3.5213   4.6485
     4.9751   5.4608   5.5512   5.9266   6.3576   6.8137   7.6482   7.8514
     8.5480   8.7302   9.4578   9.9246

          k = 0.2667 0.0000 0.0000 ( 18138 PWs)   bands (ev):

   -70.9301 -70.9075 -35.2937 -35.2764 -35.1584 -35.1174 -35.0008 -34.8686
   -33.7021 -33.7011 -33.6977 -33.6949 -33.6784 -33.6767 -33.6552 -33.6525
   -33.6521 -33.6430 -33.4815 -33.4807 -33.4780 -33.4774 -33.4278 -33.4224
   -33.3848 -33.3828 -33.3782 -33.3740  -9.0392  -8.2548  -7.5790  -7.2308
    -2.0291  -1.5280  -1.3505  -0.8983  -0.5803   0.0391   0.1891   0.3383
     0.9535   1.4369   1.5255   1.7768   2.3598   2.7481   3.6030   4.6418
     4.9282   5.4784   5.5674   5.9049   6.4127   6.8339   7.7294   7.8010
     8.6427   8.8120   9.3436   9.9766

          k = 0.2833 0.0000 0.0000 ( 18142 PWs)   bands (ev):

   -70.9294 -70.9081 -35.2978 -35.2804 -35.1576 -35.1199 -34.9960 -34.8713
   -33.7011 -33.7006 -33.6979 -33.6952 -33.6781 -33.6768 -33.6547 -33.6522
   -33.6519 -33.6432 -33.4807 -33.4798 -33.4780 -33.4774 -33.4279 -33.4229
   -33.3847 -33.3830 -33.3779 -33.3741  -8.9455  -8.2041  -7.5527  -7.1991
    -1.9781  -1.5121  -1.2979  -1.0489  -0.5687  -0.0067   0.1392   0.3099
     0.7779   1.3867   1.5091   1.7004   2.3164   2.7046   3.6916   4.6376
     4.8994   5.4712   5.6012   5.8657   6.4667   6.8654   7.7605   7.8159
     8.7406   8.8942   9.2352   9.9859

          k = 0.3000 0.0000 0.0000 ( 18146 PWs)   bands (ev):

   -70.9286 -70.9087 -35.3017 -35.2844 -35.1567 -35.1222 -34.9911 -34.8743
   -33.7005 -33.7003 -33.6980 -33.6953 -33.6780 -33.6769 -33.6540 -33.6520
   -33.6517 -33.6433 -33.4802 -33.4791 -33.4780 -33.4772 -33.4281 -33.4231
   -33.3846 -33.3831 -33.3776 -33.3741  -8.8484  -8.1525  -7.5276  -7.1712
    -1.9366  -1.5185  -1.2315  -1.1891  -0.5481  -0.0579   0.0875   0.2656
     0.6417   1.3349   1.4919   1.6360   2.2719   2.6555   3.7859   4.6354
     4.8885   5.4470   5.6410   5.8123   6.5200   6.9060   7.7345   7.9069
     8.8401   8.9755   9.1320   9.9623

          k = 0.3167 0.0000 0.0000 ( 18154 PWs)   bands (ev):

   -70.9277 -70.9093 -35.3054 -35.2884 -35.1557 -35.1244 -34.9860 -34.8775
   -33.7002 -33.6999 -33.6976 -33.6954 -33.6777 -33.6772 -33.6534 -33.6520
   -33.6517 -33.6436 -33.4797 -33.4787 -33.4776 -33.4767 -33.4281 -33.4237
   -33.3846 -33.3833 -33.3775 -33.3742  -8.7482  -8.1005  -7.5041  -7.1482
    -1.9094  -1.5366  -1.3097  -1.1651  -0.5217  -0.1146   0.0343   0.1848
     0.5715   1.2808   1.4730   1.5862   2.2254   2.6005   3.8851   4.6363
     4.8934   5.4114   5.6776   5.7487   6.5742   6.9527   7.7257   8.0020
     8.9359   9.0378   9.0534   9.9204

          k = 0.3333 0.0000 0.0000 ( 18138 PWs)   bands (ev):

   -70.9269 -70.9100 -35.3087 -35.2924 -35.1548 -35.1265 -34.9808 -34.8809
   -33.6995 -33.6993 -33.6969 -33.6949 -33.6777 -33.6771 -33.6525 -33.6518
   -33.6514 -33.6436 -33.4789 -33.4782 -33.4767 -33.4760 -33.4281 -33.4240
   -33.3843 -33.3833 -33.3772 -33.3742  -8.6455  -8.0485  -7.4826  -7.1314
    -1.9022  -1.5612  -1.4028  -1.1082  -0.4921  -0.1826  -0.0181   0.0865
     0.5608   1.2239   1.4523   1.5519   2.1766   2.5397   3.9881   4.6421
     4.9110   5.3669   5.6789   5.7058   6.6316   7.0019   7.7349   8.1008
     8.9237   9.0562   9.1238   9.8713

          k = 0.3500 0.0000 0.0000 ( 18146 PWs)   bands (ev):

   -70.9260 -70.9107 -35.3118 -35.2963 -35.1538 -35.1285 -34.9756 -34.8846
   -33.6995 -33.6993 -33.6967 -33.6949 -33.6775 -33.6773 -33.6519 -33.6517
   -33.6512 -33.6436 -33.4789 -33.4783 -33.4763 -33.4757 -33.4280 -33.4242
   -33.3842 -33.3832 -33.3769 -33.3742  -8.5410  -7.9972  -7.4636  -7.1217
    -1.9182  -1.5901  -1.4634  -1.0680  -0.4643  -0.2729  -0.0632   0.0157
     0.5816   1.1643   1.4302   1.5323   2.1258   2.4729   4.0937   4.6543
     4.9375   5.3160   5.6063   5.7224   6.6944   7.0508   7.7612   8.2026
     8.8354   9.1550   9.1795   9.8254

          k = 0.3667 0.0000 0.0000 ( 18140 PWs)   bands (ev):

   -70.9252 -70.9114 -35.3144 -35.3001 -35.1528 -35.1304 -34.9702 -34.8885
   -33.6993 -33.6991 -33.6961 -33.6946 -33.6773 -33.6771 -33.6513 -33.6512
   -33.6509 -33.6442 -33.4787 -33.4781 -33.4756 -33.4750 -33.4279 -33.4243
   -33.3842 -33.3833 -33.3767 -33.3743  -8.4355  -7.9473  -7.4473  -7.1201
    -1.9530  -1.6222  -1.4942  -1.0511  -0.4483  -0.3810  -0.0895  -0.0094
     0.6160   1.1022   1.4080   1.5255   2.0735   2.4003   4.2007   4.6737
     4.9696   5.2613   5.5339   5.7256   6.7635   7.0968   7.8029   8.3064
     8.7499   9.2106   9.2561   9.7894

          k = 0.3833 0.0000 0.0000 ( 18156 PWs)   bands (ev):

   -70.9243 -70.9121 -35.3167 -35.3037 -35.1517 -35.1323 -34.9648 -34.8926
   -33.6996 -33.6992 -33.6957 -33.6944 -33.6774 -33.6774 -33.6512 -33.6508
   -33.6507 -33.6446 -33.4788 -33.4781 -33.4752 -33.4745 -33.4282 -33.4247
   -33.3844 -33.3834 -33.3766 -33.3745  -8.3300  -7.8994  -7.4339  -7.1273
    -1.9953  -1.6571  -1.5046  -1.0613  -0.4866  -0.4556  -0.0839   0.0032
     0.6533   1.0379   1.3889   1.5290   2.0207   2.3223   4.3073   4.6997
     5.0041   5.2061   5.4644   5.7150   6.8384   7.1381   7.8576   8.4099
     8.6721   9.2113   9.3558   9.7443

          k = 0.4000 0.0000 0.0000 ( 18158 PWs)   bands (ev):

   -70.9234 -70.9129 -35.3186 -35.3071 -35.1506 -35.1340 -34.9593 -34.8969
   -33.6992 -33.6991 -33.6950 -33.6942 -33.6778 -33.6775 -33.6510 -33.6506
   -33.6503 -33.6450 -33.4787 -33.4778 -33.4746 -33.4738 -33.4283 -33.4253
   -33.3844 -33.3834 -33.3764 -33.3745  -8.2257  -7.8546  -7.4234  -7.1436
    -2.0339  -1.6950  -1.5040  -1.0980  -0.5748  -0.4871  -0.0445   0.0429
     0.6848   0.9714   1.3778   1.5405   1.9683   2.2393   4.4118   4.7308
     5.0383   5.1535   5.4008   5.6914   6.9167   7.1736   7.9239   8.5084
     8.6051   9.1886   9.4523   9.6325

          k = 0.4167 0.0000 0.0000 ( 18144 PWs)   bands (ev):

   -70.9225 -70.9137 -35.3200 -35.3102 -35.1495 -35.1357 -34.9538 -34.9014
   -33.6992 -33.6991 -33.6942 -33.6937 -33.6775 -33.6772 -33.6508 -33.6505
   -33.6498 -33.6451 -33.4785 -33.4776 -33.4740 -33.4732 -33.4281 -33.4252
   -33.3843 -33.3835 -33.3761 -33.3746  -8.1240  -7.8139  -7.4155  -7.1688
    -2.0619  -1.7365  -1.4977  -1.1544  -0.6408  -0.5324   0.0193   0.1013
     0.7017   0.9028   1.3811   1.5580   1.9175   2.1519   4.5119   4.7644
     5.0691   5.1069   5.3466   5.6562   6.9946   7.2026   8.0006   8.5521
     8.5918   9.1617   9.4682   9.5438

          k = 0.4333 0.0000 0.0000 ( 18132 PWs)   bands (ev):

   -70.9216 -70.9145 -35.3210 -35.3130 -35.1484 -35.1373 -34.9482 -34.9061
   -33.6989 -33.6988 -33.6940 -33.6932 -33.6772 -33.6772 -33.6506 -33.6502
   -33.6493 -33.6454 -33.4780 -33.4773 -33.4735 -33.4729 -33.4277 -33.4254
   -33.3842 -33.3835 -33.3759 -33.3746  -8.0270  -7.7790  -7.4095  -7.2021
    -2.0758  -1.7821  -1.4882  -1.2193  -0.6861  -0.5815   0.0974   0.1719
     0.6972   0.8318   1.4043   1.5799   1.8690   2.0609   4.6048   4.7965
     5.0689   5.0923   5.3072   5.6113   7.0678   7.2250   8.0873   8.5163
     8.6433   9.1453   9.3059   9.6261

          k = 0.4500 0.0000 0.0000 ( 18130 PWs)   bands (ev):

   -70.9206 -70.9154 -35.3216 -35.3154 -35.1471 -35.1389 -34.9427 -34.9110
   -33.6988 -33.6985 -33.6936 -33.6929 -33.6777 -33.6772 -33.6505 -33.6500
   -33.6489 -33.6458 -33.4778 -33.4772 -33.4730 -33.4724 -33.4278 -33.4258
   -33.3842 -33.3836 -33.3757 -33.3747  -7.9373  -7.7519  -7.4037  -7.2416
    -2.0744  -1.8319  -1.4760  -1.2823  -0.7145  -0.6279   0.1831   0.2492
     0.6694   0.7586   1.4490   1.6050   1.8237   1.9676   4.6871   4.8228
     5.0423   5.1012   5.2910   5.5590   7.1316   7.2406   8.1841   8.5007
     8.6498   9.0602   9.2607   9.6900

          k = 0.4667 0.0000 0.0000 ( 18124 PWs)   bands (ev):

   -70.9197 -70.9162 -35.3217 -35.3175 -35.1459 -35.1404 -34.9373 -34.9160
   -33.6989 -33.6986 -33.6932 -33.6926 -33.6777 -33.6773 -33.6502 -33.6498
   -33.6483 -33.6462 -33.4777 -33.4771 -33.4728 -33.4721 -33.4276 -33.4261
   -33.3842 -33.3835 -33.3755 -33.3745  -7.8588  -7.7358  -7.3958  -7.2840
    -2.0578  -1.8846  -1.4607  -1.3370  -0.7287  -0.6679   0.2711   0.3279
     0.6222   0.6839   1.5121   1.6323   1.7820   1.8735   4.7548   4.8391
     5.0295   5.0922   5.3032   5.5020   7.1824   7.2492   8.2905   8.5078
     8.6189   8.9024   9.3395   9.7144

          k = 0.4833 0.0000 0.0000 ( 18152 PWs)   bands (ev):

   -70.9188 -70.9171 -35.3213 -35.3192 -35.1446 -35.1419 -34.9318 -34.9212
   -33.6990 -33.6989 -33.6933 -33.6929 -33.6781 -33.6780 -33.6502 -33.6499
   -33.6481 -33.6469 -33.4779 -33.4773 -33.4729 -33.4723 -33.4279 -33.4269
   -33.3844 -33.3838 -33.3756 -33.3748  -7.7963  -7.7351  -7.3819  -7.3248
    -2.0276  -1.9373  -1.4410  -1.3811  -0.7304  -0.6992   0.3553   0.3986
     0.5677   0.6103   1.5874   1.6592   1.7451   1.7828   4.8036   4.8430
     5.0322   5.0714   5.3383   5.4435   7.2184   7.2497   8.4018   8.5422
     8.5673   8.7482   9.4535   9.6729

          k = 0.5000 0.0000 0.0000 ( 18136 PWs)   bands (ev):

   -70.9180 -70.9179 -35.3205 -35.3204 -35.1433 -35.1432 -34.9265 -34.9264
   -33.6990 -33.6988 -33.6934 -33.6933 -33.6777 -33.6777 -33.6496 -33.6495
   -33.6473 -33.6472 -33.4778 -33.4773 -33.4730 -33.4724 -33.4275 -33.4268
   -33.3840 -33.3834 -33.3751 -33.3745  -7.7552  -7.7536  -7.3590  -7.3581
    -1.9870  -1.9856  -1.4157  -1.4146  -0.7212  -0.7195   0.4170   0.4173
     0.5523   0.5542   1.6575   1.6593   1.7239   1.7257   4.8310   4.8335
     5.0478   5.0490   5.3865   5.3882   7.2388   7.2416   8.4983   8.4998
     8.6185   8.6213   9.5734   9.5745

     Writing output data file wte2.save\

     init_run     :     22.64s CPU     15.84s WALL (       1 calls)
     electrons    :   1610.08s CPU    746.48s WALL (       1 calls)

     Called by init_run:
     wfcinit      :      0.00s CPU      0.00s WALL (       1 calls)
     wfcinit:atom :      1.62s CPU      1.15s WALL (      61 calls)
     wfcinit:wfcr :     77.81s CPU     36.18s WALL (      61 calls)
     potinit      :      1.55s CPU      0.81s WALL (       1 calls)
     hinit0       :     20.94s CPU     14.86s WALL (       1 calls)

     Called by electrons:
     c_bands      :   1610.08s CPU    746.48s WALL (       1 calls)
     v_of_rho     :      1.47s CPU      0.68s WALL (       1 calls)
     v_h          :      0.11s CPU      0.05s WALL (       1 calls)
     v_xc         :      1.36s CPU      0.64s WALL (       1 calls)

     Called by c_bands:
     init_us_2    :      2.34s CPU      0.69s WALL (      61 calls)
     cegterg      :   1508.42s CPU    700.41s WALL (     155 calls)

     Called by sum_band:

     Called by *egterg:
     h_psi        :   1187.45s CPU    532.23s WALL (    2746 calls)
     g_psi        :     13.44s CPU      4.07s WALL (    2530 calls)
     cdiaghg      :     49.83s CPU     27.54s WALL (    2591 calls)
     cegterg:over :    136.61s CPU     70.93s WALL (    2530 calls)
     cegterg:upda :    114.84s CPU     59.51s WALL (    2530 calls)
     cegterg:last :     55.97s CPU     27.73s WALL (     338 calls)

     Called by h_psi:
     h_psi:pot    :   1175.75s CPU    527.44s WALL (    2746 calls)
     h_psi:calbec :     64.14s CPU     33.19s WALL (    2746 calls)
     vloc_psi     :   1048.09s CPU    461.40s WALL (    2746 calls)
     add_vuspsi   :     63.52s CPU     32.83s WALL (    2746 calls)

     General routines
     calbec       :     64.11s CPU     33.17s WALL (    2746 calls)
     fft          :      0.31s CPU      0.19s WALL (      12 calls)
     ffts         :      0.00s CPU      0.06s WALL (       1 calls)
     fftw         :    661.53s CPU    342.91s WALL (  115692 calls)
     interpolate  :      0.05s CPU      0.09s WALL (       1 calls)
     davcio       :      1.86s CPU      2.46s WALL (     122 calls)

     Parallel routines

     PWSCF        :  27m15.03s CPU  12m45.45s WALL


   This run was terminated on:  14:15:48  13Aug2024            

=------------------------------------------------------------------------------=
   JOB DONE.
=------------------------------------------------------------------------------=
