
     Program PROJWFC v.6.4.1 starts on 14Aug2024 at 19:18: 1 

     This program is part of the open-source Quantum ESPRESSO suite
     for quantum simulation of materials; please cite
         "P. Giannozzi et al., J. Phys.:Condens. Matter 21 395502 (2009);
         "P. Giannozzi et al., J. Phys.:Condens. Matter 29 465901 (2017);
          URL http://www.quantum-espresso.org", 
     in publications or presentations arising from this work. More details at
     http://www.quantum-espresso.org/quote

     Parallel version (MPI & OpenMP), running on       4 processor cores
     Number of MPI processes:                 1
     Threads/MPI process:                     4

     MPI processes distributed on     1 nodes

     Reading data from directory:
     .\wte2.save\

     IMPORTANT: XC functional enforced from input :
     Exchange-correlation      = PBE ( 1  4  3  4 0 0)
     Any further DFT definition will be discarded
     Please, verify this is what you really want


     G-vector sticks info
     --------------------
     sticks:   dense  smooth     PW     G-vecs:    dense   smooth      PW
     Sum        3159    1515    423               436185   145025   21679


     Gaussian broadening (read from input): ngauss,degauss=   0    0.010000


     Calling projwave .... 

     Atomic states used for projection
     (read from pseudopotential files):

     state #   1: atom   1 (Te ), wfc  1 (l=2 m= 1)
     state #   2: atom   1 (Te ), wfc  1 (l=2 m= 2)
     state #   3: atom   1 (Te ), wfc  1 (l=2 m= 3)
     state #   4: atom   1 (Te ), wfc  1 (l=2 m= 4)
     state #   5: atom   1 (Te ), wfc  1 (l=2 m= 5)
     state #   6: atom   1 (Te ), wfc  2 (l=0 m= 1)
     state #   7: atom   1 (Te ), wfc  3 (l=1 m= 1)
     state #   8: atom   1 (Te ), wfc  3 (l=1 m= 2)
     state #   9: atom   1 (Te ), wfc  3 (l=1 m= 3)
     state #  10: atom   2 (Te ), wfc  1 (l=2 m= 1)
     state #  11: atom   2 (Te ), wfc  1 (l=2 m= 2)
     state #  12: atom   2 (Te ), wfc  1 (l=2 m= 3)
     state #  13: atom   2 (Te ), wfc  1 (l=2 m= 4)
     state #  14: atom   2 (Te ), wfc  1 (l=2 m= 5)
     state #  15: atom   2 (Te ), wfc  2 (l=0 m= 1)
     state #  16: atom   2 (Te ), wfc  3 (l=1 m= 1)
     state #  17: atom   2 (Te ), wfc  3 (l=1 m= 2)
     state #  18: atom   2 (Te ), wfc  3 (l=1 m= 3)
     state #  19: atom   3 (Te ), wfc  1 (l=2 m= 1)
     state #  20: atom   3 (Te ), wfc  1 (l=2 m= 2)
     state #  21: atom   3 (Te ), wfc  1 (l=2 m= 3)
     state #  22: atom   3 (Te ), wfc  1 (l=2 m= 4)
     state #  23: atom   3 (Te ), wfc  1 (l=2 m= 5)
     state #  24: atom   3 (Te ), wfc  2 (l=0 m= 1)
     state #  25: atom   3 (Te ), wfc  3 (l=1 m= 1)
     state #  26: atom   3 (Te ), wfc  3 (l=1 m= 2)
     state #  27: atom   3 (Te ), wfc  3 (l=1 m= 3)
     state #  28: atom   4 (Te ), wfc  1 (l=2 m= 1)
     state #  29: atom   4 (Te ), wfc  1 (l=2 m= 2)
     state #  30: atom   4 (Te ), wfc  1 (l=2 m= 3)
     state #  31: atom   4 (Te ), wfc  1 (l=2 m= 4)
     state #  32: atom   4 (Te ), wfc  1 (l=2 m= 5)
     state #  33: atom   4 (Te ), wfc  2 (l=0 m= 1)
     state #  34: atom   4 (Te ), wfc  3 (l=1 m= 1)
     state #  35: atom   4 (Te ), wfc  3 (l=1 m= 2)
     state #  36: atom   4 (Te ), wfc  3 (l=1 m= 3)
     state #  37: atom   5 (W  ), wfc  1 (l=0 m= 1)
     state #  38: atom   5 (W  ), wfc  2 (l=1 m= 1)
     state #  39: atom   5 (W  ), wfc  2 (l=1 m= 2)
     state #  40: atom   5 (W  ), wfc  2 (l=1 m= 3)
     state #  41: atom   5 (W  ), wfc  3 (l=2 m= 1)
     state #  42: atom   5 (W  ), wfc  3 (l=2 m= 2)
     state #  43: atom   5 (W  ), wfc  3 (l=2 m= 3)
     state #  44: atom   5 (W  ), wfc  3 (l=2 m= 4)
     state #  45: atom   5 (W  ), wfc  3 (l=2 m= 5)
     state #  46: atom   5 (W  ), wfc  4 (l=0 m= 1)
     state #  47: atom   6 (W  ), wfc  1 (l=0 m= 1)
     state #  48: atom   6 (W  ), wfc  2 (l=1 m= 1)
     state #  49: atom   6 (W  ), wfc  2 (l=1 m= 2)
     state #  50: atom   6 (W  ), wfc  2 (l=1 m= 3)
     state #  51: atom   6 (W  ), wfc  3 (l=2 m= 1)
     state #  52: atom   6 (W  ), wfc  3 (l=2 m= 2)
     state #  53: atom   6 (W  ), wfc  3 (l=2 m= 3)
     state #  54: atom   6 (W  ), wfc  3 (l=2 m= 4)
     state #  55: atom   6 (W  ), wfc  3 (l=2 m= 5)
     state #  56: atom   6 (W  ), wfc  4 (l=0 m= 1)

 k =  -0.5000000000  0.0000000000  0.0000000000
==== e(   1) =   -70.91799 eV ==== 
     psi = 0.981*[#  37]+0.004*[#  26]+0.004*[#  46]+0.003*[#   8]+0.003*[#  55]+
          +0.002*[#  16]+
    |psi|^2 = 1.000
==== e(   2) =   -70.91792 eV ==== 
     psi = 0.981*[#  47]+0.004*[#  17]+0.004*[#  56]+0.003*[#  35]+0.003*[#  45]+
          +0.002*[#  25]+
    |psi|^2 = 1.000
==== e(   3) =   -35.32048 eV ==== 
     psi = 0.678*[#  49]+0.275*[#  40]+0.022*[#  38]+0.005*[#  16]+0.003*[#  10]+
          +0.003*[#  36]+0.002*[#  30]+0.002*[#  20]+0.002*[#  46]+0.001*[#  15]+
          +0.001*[#  26]+
    |psi|^2 = 1.000
==== e(   4) =   -35.32045 eV ==== 
     psi = 0.679*[#  39]+0.275*[#  50]+0.022*[#  48]+0.005*[#  25]+0.003*[#   9]+
          +0.003*[#  19]+0.002*[#   3]+0.002*[#  11]+0.002*[#  56]+0.001*[#  24]+
          +0.001*[#  17]+
    |psi|^2 = 1.000
==== e(   5) =   -35.14332 eV ==== 
     psi = 0.815*[#  38]+0.100*[#  49]+0.056*[#  40]+0.011*[#  20]+0.003*[#  26]+
          +0.002*[#   8]+0.002*[#   5]+0.002*[#  16]+0.002*[#   2]+0.001*[#  23]+
          +0.001*[#  10]+0.001*[#  12]+
    |psi|^2 = 1.000
==== e(   6) =   -35.14320 eV ==== 
     psi = 0.815*[#  48]+0.099*[#  39]+0.056*[#  50]+0.011*[#  11]+0.003*[#  17]+
          +0.002*[#  35]+0.002*[#  32]+0.002*[#  25]+0.001*[#  14]+0.002*[#  29]+
          +0.001*[#  19]+0.001*[#  21]+
    |psi|^2 = 1.000
==== e(   7) =   -34.92653 eV ==== 
     psi = 0.650*[#  50]+0.200*[#  39]+0.131*[#  48]+0.007*[#  21]+0.002*[#  45]+
          +0.001*[#   4]+0.001*[#   7]+0.001*[#  22]+
    |psi|^2 = 1.000
==== e(   8) =   -34.92638 eV ==== 
     psi = 0.650*[#  40]+0.200*[#  49]+0.131*[#  38]+0.007*[#  12]+0.002*[#  55]+
          +0.001*[#  31]+0.001*[#  34]+0.001*[#  13]+
    |psi|^2 = 1.000
==== e(   9) =   -33.69897 eV ==== 
     psi = 0.837*[#  23]+0.132*[#  13]+0.015*[#  10]+0.008*[#  20]+0.006*[#  12]+
    |psi|^2 = 1.000
==== e(  10) =   -33.69884 eV ==== 
     psi = 0.821*[#  14]+0.147*[#  22]+0.016*[#  19]+0.009*[#  11]+0.006*[#  21]+
    |psi|^2 = 1.000
==== e(  11) =   -33.69341 eV ==== 
     psi = 0.771*[#  22]+0.166*[#  14]+0.037*[#  11]+0.023*[#  19]+0.003*[#  21]+
    |psi|^2 = 1.000
==== e(  12) =   -33.69329 eV ==== 
     psi = 0.784*[#  13]+0.150*[#  23]+0.039*[#  20]+0.024*[#  10]+0.002*[#  12]+
    |psi|^2 = 1.000
==== e(  13) =   -33.67768 eV ==== 
     psi = 0.850*[#  20]+0.093*[#  12]+0.040*[#  13]+0.007*[#  38]+0.003*[#   5]+
          +0.002*[#  40]+0.002*[#   2]+0.001*[#  23]+
    |psi|^2 = 1.000
==== e(  14) =   -33.67767 eV ==== 
     psi = 0.850*[#  11]+0.094*[#  21]+0.039*[#  22]+0.007*[#  48]+0.003*[#  32]+
          +0.002*[#  50]+0.001*[#  14]+0.002*[#  29]+
    |psi|^2 = 1.000
==== e(  15) =   -33.64961 eV ==== 
     psi = 0.943*[#  19]+0.039*[#  22]+0.011*[#  21]+0.003*[#  39]+0.002*[#  14]+
    |psi|^2 = 1.000
==== e(  16) =   -33.64954 eV ==== 
     psi = 0.945*[#  10]+0.039*[#  13]+0.009*[#  12]+0.003*[#  49]+0.002*[#  23]+
    |psi|^2 = 1.000
==== e(  17) =   -33.64725 eV ==== 
     psi = 0.877*[#  21]+0.085*[#  11]+0.013*[#  19]+0.010*[#  48]+0.007*[#  14]+
          +0.003*[#  22]+0.002*[#  50]+0.001*[#  39]+
    |psi|^2 = 1.000
==== e(  18) =   -33.64720 eV ==== 
     psi = 0.880*[#  12]+0.084*[#  20]+0.011*[#  10]+0.010*[#  38]+0.007*[#  23]+
          +0.003*[#  13]+0.002*[#  40]+0.002*[#  49]+
    |psi|^2 = 1.000
==== e(  19) =   -33.47784 eV ==== 
     psi = 0.871*[#   5]+0.116*[#   2]+0.004*[#  20]+0.003*[#  38]+0.002*[#  31]+
          +0.002*[#  40]+
    |psi|^2 = 1.000
==== e(  20) =   -33.47727 eV ==== 
     psi = 0.870*[#  32]+0.116*[#  29]+0.004*[#  11]+0.003*[#   4]+0.003*[#  48]+
          +0.002*[#  50]+
    |psi|^2 = 1.000
==== e(  21) =   -33.47303 eV ==== 
     psi = 0.886*[#   4]+0.063*[#   1]+0.044*[#   3]+0.004*[#  32]+
    |psi|^2 = 1.000
==== e(  22) =   -33.47244 eV ==== 
     psi = 0.888*[#  31]+0.063*[#  28]+0.044*[#  30]+0.003*[#   5]+
    |psi|^2 = 1.000
==== e(  23) =   -33.42747 eV ==== 
     psi = 0.872*[#   2]+0.117*[#   5]+0.008*[#  28]+0.001*[#  40]+
    |psi|^2 = 1.000
==== e(  24) =   -33.42679 eV ==== 
     psi = 0.872*[#  29]+0.117*[#  32]+0.008*[#   1]+0.001*[#  50]+
    |psi|^2 = 1.000
==== e(  25) =   -33.38403 eV ==== 
     psi = 0.552*[#   3]+0.340*[#   1]+0.103*[#   4]+0.001*[#  50]+0.001*[#  29]+
    |psi|^2 = 1.000
==== e(  26) =   -33.38343 eV ==== 
     psi = 0.553*[#  30]+0.339*[#  28]+0.103*[#  31]+0.001*[#  40]+
    |psi|^2 = 1.000
==== e(  27) =   -33.37514 eV ==== 
     psi = 0.588*[#   1]+0.399*[#   3]+0.006*[#  29]+0.004*[#   4]+0.001*[#  32]+
    |psi|^2 = 1.000
==== e(  28) =   -33.37450 eV ==== 
     psi = 0.590*[#  28]+0.398*[#  30]+0.006*[#   2]+0.004*[#  31]+0.001*[#   5]+
    |psi|^2 = 1.000
==== e(  29) =    -7.75522 eV ==== 
     psi = 0.801*[#  24]+0.062*[#  42]+0.039*[#  56]+0.023*[#  35]+0.018*[#   6]+
          +0.018*[#  53]+0.010*[#  54]+0.009*[#  25]+0.005*[#  51]+0.005*[#  45]+
          +0.003*[#  39]+0.001*[#   7]+0.001*[#  17]+
    |psi|^2 = 0.998
==== e(  30) =    -7.75363 eV ==== 
     psi = 0.801*[#  15]+0.061*[#  52]+0.039*[#  46]+0.023*[#   8]+0.019*[#  33]+
          +0.018*[#  43]+0.010*[#  44]+0.009*[#  16]+0.005*[#  41]+0.005*[#  55]+
          +0.003*[#  49]+0.001*[#  26]+0.001*[#  34]+
    |psi|^2 = 0.998
==== e(  31) =    -7.35896 eV ==== 
     psi = 0.820*[#  33]+0.050*[#  52]+0.034*[#  55]+0.024*[#  46]+0.022*[#  26]+
          +0.019*[#  15]+0.014*[#  44]+0.006*[#   8]+0.004*[#  34]+0.002*[#  43]+
          +0.001*[#  49]+
    |psi|^2 = 0.999
==== e(  32) =    -7.35812 eV ==== 
     psi = 0.821*[#   6]+0.049*[#  42]+0.034*[#  45]+0.024*[#  56]+0.022*[#  17]+
          +0.019*[#  24]+0.014*[#  54]+0.006*[#  35]+0.004*[#   7]+0.002*[#  53]+
          +0.001*[#  39]+
    |psi|^2 = 0.999
==== e(  33) =    -1.98699 eV ==== 
     psi = 0.499*[#  26]+0.139*[#  46]+0.065*[#   8]+0.064*[#  41]+0.062*[#  55]+
          +0.054*[#  43]+0.036*[#  33]+0.019*[#  18]+0.017*[#  52]+0.012*[#  15]+
          +0.008*[#  16]+0.005*[#  44]+0.004*[#  37]+0.003*[#  36]+
    |psi|^2 = 0.992
==== e(  34) =    -1.98561 eV ==== 
     psi = 0.499*[#  17]+0.139*[#  56]+0.066*[#  35]+0.064*[#  51]+0.062*[#  45]+
          +0.054*[#  53]+0.036*[#   6]+0.019*[#  27]+0.017*[#  42]+0.013*[#  24]+
          +0.008*[#  25]+0.005*[#  54]+0.004*[#  47]+0.003*[#   9]+
    |psi|^2 = 0.992
==== e(  35) =    -1.41566 eV ==== 
     psi = 0.581*[#  35]+0.106*[#   7]+0.091*[#  45]+0.073*[#  53]+0.072*[#  17]+
          +0.017*[#  27]+0.014*[#   6]+0.008*[#  54]+0.008*[#  24]+0.006*[#  51]+
          +0.005*[#  42]+0.004*[#  56]+0.003*[#  50]+0.002*[#  48]+
    |psi|^2 = 0.991
==== e(  36) =    -1.41460 eV ==== 
     psi = 0.582*[#   8]+0.106*[#  34]+0.090*[#  55]+0.073*[#  43]+0.071*[#  26]+
          +0.017*[#  18]+0.014*[#  33]+0.008*[#  44]+0.008*[#  15]+0.006*[#  41]+
          +0.005*[#  52]+0.004*[#  46]+0.003*[#  40]+0.002*[#  38]+
    |psi|^2 = 0.991
==== e(  37) =    -0.72117 eV ==== 
     psi = 0.233*[#  36]+0.232*[#  16]+0.140*[#  52]+0.119*[#  43]+0.084*[#  15]+
          +0.065*[#  55]+0.036*[#  44]+0.034*[#  46]+0.030*[#  26]+0.007*[#  18]+
          +0.005*[#   8]+0.005*[#  41]+0.002*[#  33]+
    |psi|^2 = 0.993
==== e(  38) =    -0.71949 eV ==== 
     psi = 0.232*[#  25]+0.232*[#   9]+0.140*[#  42]+0.119*[#  53]+0.084*[#  24]+
          +0.065*[#  45]+0.036*[#  54]+0.033*[#  56]+0.030*[#  17]+0.007*[#  27]+
          +0.005*[#  35]+0.005*[#  51]+0.002*[#   6]+
    |psi|^2 = 0.993
==== e(  39) =     0.41695 eV ==== 
     psi = 0.311*[#   9]+0.269*[#  25]+0.104*[#  51]+0.074*[#  27]+0.063*[#   7]+
          +0.045*[#  54]+0.030*[#  35]+0.021*[#  45]+0.008*[#  39]+0.007*[#  53]+
          +0.004*[#   6]+0.004*[#  42]+0.003*[#  17]+0.003*[#  56]+0.002*[#  50]+
          +0.002*[#  24]+
    |psi|^2 = 0.950
==== e(  40) =     0.41728 eV ==== 
     psi = 0.310*[#  36]+0.270*[#  16]+0.104*[#  41]+0.074*[#  18]+0.063*[#  34]+
          +0.045*[#  44]+0.030*[#   8]+0.020*[#  55]+0.008*[#  49]+0.007*[#  43]+
          +0.004*[#  33]+0.004*[#  52]+0.003*[#  26]+0.003*[#  46]+0.002*[#  40]+
          +0.002*[#  15]+
    |psi|^2 = 0.950
==== e(  41) =     0.55230 eV ==== 
     psi = 0.471*[#  27]+0.162*[#  42]+0.154*[#  17]+0.096*[#  45]+0.041*[#   9]+
          +0.022*[#  56]+0.014*[#  54]+0.008*[#  35]+0.005*[#   7]+0.003*[#  48]+
          +0.002*[#  24]+0.001*[#  25]+0.001*[#  51]+
    |psi|^2 = 0.982
==== e(  42) =     0.55424 eV ==== 
     psi = 0.470*[#  18]+0.162*[#  52]+0.154*[#  26]+0.096*[#  55]+0.041*[#  36]+
          +0.022*[#  46]+0.014*[#  44]+0.008*[#   8]+0.005*[#  34]+0.003*[#  38]+
          +0.002*[#  15]+0.001*[#  16]+0.001*[#  41]+
    |psi|^2 = 0.982
==== e(  43) =     1.65746 eV ==== 
     psi = 0.531*[#   7]+0.137*[#  45]+0.086*[#  35]+0.079*[#  53]+0.034*[#   6]+
          +0.031*[#   9]+0.025*[#  27]+0.022*[#  17]+0.017*[#  42]+0.014*[#  51]+
          +0.006*[#  56]+0.005*[#  54]+0.002*[#  25]+0.001*[#  24]+
    |psi|^2 = 0.993
==== e(  44) =     1.65928 eV ==== 
     psi = 0.532*[#  34]+0.136*[#  55]+0.086*[#   8]+0.079*[#  43]+0.034*[#  33]+
          +0.032*[#  36]+0.025*[#  18]+0.022*[#  26]+0.017*[#  52]+0.014*[#  41]+
          +0.006*[#  46]+0.005*[#  44]+0.002*[#  16]+0.001*[#  15]+
    |psi|^2 = 0.993
==== e(  45) =     1.72394 eV ==== 
     psi = 0.265*[#  41]+0.194*[#  16]+0.138*[#  55]+0.129*[#  36]+0.087*[#  18]+
          +0.085*[#  44]+0.043*[#  52]+0.018*[#  34]+0.011*[#  46]+0.009*[#  15]+
          +0.008*[#  43]+0.003*[#   8]+0.001*[#  38]+
    |psi|^2 = 0.992
==== e(  46) =     1.72575 eV ==== 
     psi = 0.264*[#  51]+0.194*[#  25]+0.138*[#  45]+0.129*[#   9]+0.086*[#  27]+
          +0.085*[#  54]+0.043*[#  42]+0.018*[#   7]+0.011*[#  56]+0.009*[#  24]+
          +0.008*[#  53]+0.003*[#  35]+0.001*[#  48]+
    |psi|^2 = 0.992
==== e(  47) =     4.83095 eV ==== 
     psi = 0.406*[#  43]+0.231*[#  44]+0.110*[#   8]+0.097*[#  52]+0.060*[#  18]+
          +0.021*[#  55]+0.011*[#  36]+0.010*[#  41]+0.006*[#  33]+0.005*[#  26]+
          +0.004*[#  46]+
    |psi|^2 = 0.960
==== e(  48) =     4.83349 eV ==== 
     psi = 0.403*[#  53]+0.235*[#  54]+0.110*[#  35]+0.095*[#  42]+0.059*[#  27]+
          +0.021*[#  45]+0.011*[#  51]+0.011*[#   9]+0.006*[#   6]+0.005*[#  17]+
          +0.004*[#  56]+
    |psi|^2 = 0.961
==== e(  49) =     5.04780 eV ==== 
     psi = 0.417*[#  44]+0.239*[#  41]+0.078*[#  18]+0.074*[#  52]+0.063*[#  43]+
          +0.038*[#  46]+0.029*[#  34]+0.012*[#  26]+0.010*[#  33]+0.007*[#   8]+
          +0.001*[#  36]+
    |psi|^2 = 0.971
==== e(  50) =     5.04903 eV ==== 
     psi = 0.412*[#  54]+0.238*[#  51]+0.079*[#  27]+0.076*[#  42]+0.065*[#  53]+
          +0.038*[#  56]+0.029*[#   7]+0.012*[#  17]+0.011*[#   6]+0.007*[#  35]+
          +0.001*[#   9]+
    |psi|^2 = 0.970
==== e(  51) =     5.38649 eV ==== 
     psi = 0.180*[#  51]+0.143*[#  17]+0.111*[#  27]+0.102*[#  54]+0.094*[#  53]+
          +0.081*[#  56]+0.047*[#  45]+0.036*[#  42]+0.033*[#  35]+0.032*[#   7]+
          +0.029*[#   9]+0.018*[#  25]+0.006*[#   6]+0.001*[#  24]+0.001*[#  47]+
    |psi|^2 = 0.916
==== e(  52) =     5.38816 eV ==== 
     psi = 0.180*[#  41]+0.143*[#  26]+0.111*[#  18]+0.102*[#  44]+0.094*[#  43]+
          +0.082*[#  46]+0.046*[#  55]+0.036*[#  52]+0.034*[#   8]+0.032*[#  34]+
          +0.028*[#  36]+0.018*[#  16]+0.006*[#  33]+0.001*[#  15]+0.001*[#  37]+
    |psi|^2 = 0.916
==== e(  53) =     7.23876 eV ==== 
     psi = 0.197*[#  42]+0.166*[#  45]+0.131*[#  25]+0.130*[#   7]+0.109*[#   9]+
          +0.062*[#  51]+0.031*[#  24]+0.026*[#   6]+0.011*[#  56]+0.008*[#  53]+
          +0.002*[#  27]+0.001*[#  35]+
    |psi|^2 = 0.876
==== e(  54) =     7.24161 eV ==== 
     psi = 0.198*[#  52]+0.166*[#  55]+0.131*[#  16]+0.130*[#  34]+0.109*[#  36]+
          +0.062*[#  41]+0.031*[#  15]+0.026*[#  33]+0.011*[#  46]+0.008*[#  43]+
          +0.002*[#  18]+
    |psi|^2 = 0.876
==== e(  55) =     8.49831 eV ==== 
     psi = 0.037*[#  52]+0.036*[#  16]+0.016*[#  18]+0.011*[#  46]+0.006*[#  15]+
          +0.002*[#  55]+0.002*[#  26]+0.001*[#   8]+0.001*[#  34]+
    |psi|^2 = 0.114
==== e(  56) =     8.49980 eV ==== 
     psi = 0.037*[#  42]+0.036*[#  25]+0.016*[#  27]+0.010*[#  56]+0.006*[#  24]+
          +0.002*[#  45]+0.001*[#  17]+0.001*[#  35]+0.001*[#   7]+
    |psi|^2 = 0.113
==== e(  57) =     8.61846 eV ==== 
     psi = 0.388*[#  56]+0.068*[#  45]+0.067*[#   7]+0.050*[#   9]+0.046*[#  25]+
          +0.036*[#  53]+0.017*[#   6]+0.016*[#  17]+0.015*[#  35]+0.011*[#  24]+
          +0.010*[#  42]+0.009*[#  47]+0.008*[#  54]+0.006*[#  27]+0.002*[#  51]+
    |psi|^2 = 0.749
==== e(  58) =     8.62130 eV ==== 
     psi = 0.388*[#  46]+0.068*[#  55]+0.067*[#  34]+0.050*[#  36]+0.045*[#  16]+
          +0.036*[#  43]+0.017*[#  33]+0.016*[#  26]+0.015*[#   8]+0.010*[#  15]+
          +0.010*[#  52]+0.009*[#  37]+0.008*[#  44]+0.006*[#  18]+0.002*[#  41]+
    |psi|^2 = 0.748
==== e(  59) =     9.57339 eV ==== 
     psi = 0.023*[#  46]+0.016*[#  16]+0.015*[#  41]+0.007*[#  18]+0.006*[#  55]+
          +0.003*[#  36]+0.003*[#  15]+0.002*[#   8]+0.001*[#  52]+
    |psi|^2 = 0.078
==== e(  60) =     9.57452 eV ==== 
     psi = 0.023*[#  56]+0.016*[#  25]+0.015*[#  51]+0.007*[#  27]+0.006*[#  45]+
          +0.003*[#   9]+0.003*[#  24]+0.002*[#  35]+0.002*[#  42]+
    |psi|^2 = 0.079

 k =  -0.4833333333  0.0000000000  0.0000000000
==== e(   1) =   -70.91884 eV ==== 
     psi = 0.510*[#  37]+0.471*[#  47]+0.002*[#  26]+0.002*[#  17]+0.002*[#  46]+
          +0.002*[#   8]+0.002*[#  56]+0.001*[#  35]+0.002*[#  55]+0.001*[#  45]+
    |psi|^2 = 1.000
==== e(   2) =   -70.91707 eV ==== 
     psi = 0.510*[#  47]+0.471*[#  37]+0.002*[#  56]+0.002*[#  17]+0.002*[#  46]+
          +0.002*[#  26]+0.002*[#  35]+0.001*[#   8]+0.002*[#  45]+0.001*[#  55]+
    |psi|^2 = 1.000
==== e(   3) =   -35.32129 eV ==== 
     psi = 0.352*[#  49]+0.341*[#  39]+0.133*[#  40]+0.128*[#  50]+0.011*[#  38]+
          +0.011*[#  48]+0.002*[#  16]+0.002*[#  25]+0.002*[#   9]+0.002*[#  36]+
          +0.002*[#  10]+0.001*[#  19]+0.001*[#   3]+0.001*[#  11]+0.001*[#  20]+
          +0.001*[#  30]+
    |psi|^2 = 1.000
==== e(   4) =   -35.31920 eV ==== 
     psi = 0.337*[#  39]+0.326*[#  49]+0.147*[#  50]+0.143*[#  40]+0.012*[#  48]+
          +0.011*[#  38]+0.002*[#  16]+0.002*[#  25]+0.002*[#   9]+0.002*[#  10]+
          +0.002*[#  19]+0.001*[#  36]+0.001*[#   3]+
    |psi|^2 = 1.000
==== e(   5) =   -35.14461 eV ==== 
     psi = 0.428*[#  38]+0.392*[#  48]+0.050*[#  49]+0.045*[#  39]+0.029*[#  40]+
          +0.027*[#  50]+0.006*[#  20]+0.005*[#  11]+0.002*[#  26]+0.002*[#  17]+
          +0.001*[#   8]+0.001*[#  35]+0.001*[#   5]+0.001*[#  16]+
    |psi|^2 = 1.000
==== e(   6) =   -35.14187 eV ==== 
     psi = 0.423*[#  48]+0.386*[#  38]+0.055*[#  39]+0.051*[#  49]+0.029*[#  50]+
          +0.026*[#  40]+0.006*[#  11]+0.006*[#  20]+0.002*[#  17]+0.002*[#  26]+
          +0.001*[#  35]+0.001*[#   8]+
    |psi|^2 = 1.000
==== e(   7) =   -34.93182 eV ==== 
     psi = 0.322*[#  50]+0.313*[#  40]+0.106*[#  39]+0.104*[#  49]+0.068*[#  48]+
          +0.067*[#  38]+0.004*[#  21]+0.004*[#  12]+0.001*[#  45]+0.001*[#  55]+
    |psi|^2 = 1.000
==== e(   8) =   -34.92119 eV ==== 
     psi = 0.336*[#  40]+0.328*[#  50]+0.097*[#  49]+0.094*[#  39]+0.064*[#  38]+
          +0.062*[#  48]+0.003*[#  12]+0.003*[#  21]+0.001*[#  45]+0.001*[#  55]+
    |psi|^2 = 1.000
==== e(   9) =   -33.69904 eV ==== 
     psi = 0.779*[#  23]+0.124*[#  13]+0.057*[#  14]+0.014*[#  10]+0.009*[#  22]+
          +0.008*[#  20]+0.005*[#  12]+0.001*[#  19]+
    |psi|^2 = 1.000
==== e(  10) =   -33.69889 eV ==== 
     psi = 0.762*[#  14]+0.139*[#  22]+0.056*[#  23]+0.015*[#  19]+0.010*[#  13]+
          +0.008*[#  11]+0.005*[#  21]+0.001*[#  10]+
    |psi|^2 = 1.000
==== e(  11) =   -33.69329 eV ==== 
     psi = 0.514*[#  22]+0.264*[#  13]+0.113*[#  14]+0.052*[#  23]+0.021*[#  11]+
          +0.015*[#  19]+0.010*[#  20]+0.008*[#  10]+0.002*[#  21]+
    |psi|^2 = 1.000
==== e(  12) =   -33.69292 eV ==== 
     psi = 0.518*[#  13]+0.255*[#  22]+0.100*[#  23]+0.054*[#  14]+0.030*[#  20]+
          +0.017*[#  11]+0.015*[#  10]+0.007*[#  19]+0.002*[#  12]+
    |psi|^2 = 1.000
==== e(  13) =   -33.67812 eV ==== 
     psi = 0.444*[#  20]+0.400*[#  11]+0.048*[#  12]+0.043*[#  21]+0.025*[#  13]+
          +0.023*[#  22]+0.004*[#  38]+0.003*[#  48]+0.002*[#   5]+0.001*[#  32]+
    |psi|^2 = 1.000
==== e(  14) =   -33.67796 eV ==== 
     psi = 0.448*[#  11]+0.404*[#  20]+0.052*[#  21]+0.046*[#  12]+0.017*[#  22]+
          +0.016*[#  13]+0.004*[#  48]+0.003*[#  38]+0.002*[#  32]+0.002*[#   5]+
    |psi|^2 = 1.000
==== e(  15) =   -33.65022 eV ==== 
     psi = 0.577*[#  19]+0.375*[#  10]+0.022*[#  22]+0.015*[#  13]+0.002*[#  21]+
          +0.002*[#  39]+0.001*[#  14]+0.001*[#  49]+
    |psi|^2 = 1.000
==== e(  16) =   -33.64990 eV ==== 
     psi = 0.572*[#  10]+0.369*[#  19]+0.023*[#  13]+0.015*[#  22]+0.006*[#  21]+
          +0.006*[#  12]+0.002*[#  49]+0.001*[#  39]+0.001*[#  23]+
    |psi|^2 = 1.000
==== e(  17) =   -33.64814 eV ==== 
     psi = 0.456*[#  21]+0.425*[#  12]+0.047*[#  11]+0.043*[#  20]+0.005*[#  48]+
          +0.004*[#  38]+0.004*[#  14]+0.003*[#  23]+0.002*[#  19]+0.002*[#  13]+
          +0.002*[#  22]+0.001*[#  10]+
    |psi|^2 = 1.000
==== e(  18) =   -33.64688 eV ==== 
     psi = 0.456*[#  12]+0.422*[#  21]+0.042*[#  20]+0.039*[#  11]+0.008*[#  19]+
          +0.007*[#  10]+0.005*[#  38]+0.005*[#  48]+0.004*[#  23]+0.004*[#  14]+
          +0.002*[#  13]+0.002*[#  22]+
    |psi|^2 = 1.000
==== e(  19) =   -33.47791 eV ==== 
     psi = 0.854*[#   5]+0.116*[#   2]+0.013*[#  32]+0.004*[#  31]+0.004*[#  20]+
          +0.003*[#  38]+0.002*[#  29]+0.002*[#  40]+
    |psi|^2 = 1.000
==== e(  20) =   -33.47732 eV ==== 
     psi = 0.852*[#  32]+0.115*[#  29]+0.014*[#   5]+0.006*[#   4]+0.004*[#  11]+
          +0.003*[#  48]+0.002*[#  50]+0.002*[#   2]+
    |psi|^2 = 1.000
==== e(  21) =   -33.47287 eV ==== 
     psi = 0.865*[#   4]+0.062*[#   1]+0.044*[#   3]+0.019*[#  31]+0.007*[#  32]+
          +0.001*[#  28]+
    |psi|^2 = 1.000
==== e(  22) =   -33.47226 eV ==== 
     psi = 0.866*[#  31]+0.062*[#  28]+0.044*[#  30]+0.018*[#   4]+0.005*[#   5]+
          +0.001*[#   1]+
    |psi|^2 = 1.000
==== e(  23) =   -33.42793 eV ==== 
     psi = 0.723*[#   2]+0.147*[#  29]+0.099*[#   5]+0.020*[#  32]+0.007*[#  28]+
          +0.001*[#   1]+
    |psi|^2 = 1.000
==== e(  24) =   -33.42692 eV ==== 
     psi = 0.724*[#  29]+0.147*[#   2]+0.098*[#  32]+0.020*[#   5]+0.007*[#   1]+
          +0.001*[#  28]+
    |psi|^2 = 1.000
==== e(  25) =   -33.38440 eV ==== 
     psi = 0.540*[#   3]+0.349*[#   1]+0.104*[#   4]+0.001*[#  50]+0.001*[#  29]+
    |psi|^2 = 1.000
==== e(  26) =   -33.38380 eV ==== 
     psi = 0.542*[#  30]+0.348*[#  28]+0.104*[#  31]+0.001*[#  40]+0.001*[#   2]+
          +0.001*[#   3]+
    |psi|^2 = 1.000
==== e(  27) =   -33.37556 eV ==== 
     psi = 0.544*[#   1]+0.385*[#   3]+0.034*[#  28]+0.023*[#  30]+0.006*[#  29]+
          +0.004*[#   4]+0.001*[#  32]+
    |psi|^2 = 1.000
==== e(  28) =   -33.37484 eV ==== 
     psi = 0.546*[#  28]+0.385*[#  30]+0.033*[#   1]+0.024*[#   3]+0.005*[#   2]+
          +0.004*[#  31]+0.001*[#   5]+
    |psi|^2 = 1.000
==== e(  29) =    -7.79629 eV ==== 
     psi = 0.382*[#  24]+0.363*[#  15]+0.033*[#   6]+0.033*[#  33]+0.029*[#  56]+
          +0.028*[#  46]+0.023*[#  42]+0.022*[#  52]+0.014*[#  35]+0.013*[#   8]+
          +0.009*[#  53]+0.008*[#  43]+0.006*[#  54]+0.006*[#  44]+0.005*[#  25]+
          +0.005*[#  16]+0.003*[#  17]+0.003*[#  26]+0.003*[#  51]+0.003*[#  41]+
          +0.002*[#  39]+0.002*[#  49]+0.001*[#  45]+
    |psi|^2 = 0.998
==== e(  30) =    -7.73510 eV ==== 
     psi = 0.422*[#  15]+0.402*[#  24]+0.039*[#  52]+0.038*[#  42]+0.012*[#  46]+
          +0.011*[#  56]+0.010*[#   8]+0.009*[#  35]+0.009*[#  43]+0.009*[#  53]+
          +0.004*[#  16]+0.004*[#  25]+0.004*[#  45]+0.004*[#  55]+0.004*[#  44]+
          +0.004*[#  54]+0.003*[#  41]+0.002*[#  51]+0.001*[#  39]+0.001*[#  49]+
    |psi|^2 = 0.998
==== e(  31) =    -7.38191 eV ==== 
     psi = 0.388*[#  33]+0.376*[#   6]+0.036*[#  15]+0.035*[#  24]+0.033*[#  52]+
          +0.032*[#  42]+0.019*[#  55]+0.019*[#  45]+0.009*[#  46]+0.009*[#  26]+
          +0.009*[#  17]+0.009*[#  56]+0.005*[#  44]+0.005*[#  54]+0.003*[#   8]+
          +0.003*[#  35]+0.002*[#   7]+0.002*[#  34]+
    |psi|^2 = 0.999
==== e(  32) =    -7.32481 eV ==== 
     psi = 0.430*[#   6]+0.417*[#  33]+0.018*[#  42]+0.017*[#  52]+0.015*[#  45]+
          +0.014*[#  55]+0.014*[#  56]+0.013*[#  46]+0.012*[#  17]+0.011*[#  26]+
          +0.009*[#  54]+0.009*[#  44]+0.003*[#   8]+0.003*[#  35]+0.003*[#  43]+
          +0.003*[#  53]+0.002*[#   7]+0.002*[#  34]+
    |psi|^2 = 0.999
==== e(  33) =    -2.02759 eV ==== 
     psi = 0.241*[#  26]+0.233*[#  17]+0.076*[#  46]+0.074*[#  56]+0.048*[#   8]+
          +0.047*[#  35]+0.033*[#  41]+0.032*[#  51]+0.029*[#  55]+0.028*[#  45]+
          +0.027*[#  43]+0.027*[#  53]+0.016*[#  33]+0.016*[#   6]+0.009*[#  18]+
          +0.009*[#  27]+0.006*[#  15]+0.005*[#  24]+0.005*[#  52]+0.005*[#  42]+
          +0.004*[#  16]+0.004*[#  25]+0.003*[#   9]+0.003*[#  36]+0.004*[#  44]+
          +0.003*[#  54]+0.002*[#  37]+0.002*[#  47]+
    |psi|^2 = 0.993
==== e(  34) =    -1.93731 eV ==== 
     psi = 0.266*[#  17]+0.259*[#  26]+0.065*[#  56]+0.063*[#  46]+0.034*[#  45]+
          +0.033*[#  55]+0.032*[#  51]+0.031*[#  41]+0.027*[#  53]+0.026*[#  43]+
          +0.019*[#   6]+0.019*[#  35]+0.019*[#  33]+0.018*[#   8]+0.014*[#  42]+
          +0.014*[#  52]+0.011*[#  27]+0.010*[#  18]+0.007*[#  24]+0.006*[#  15]+
          +0.003*[#  25]+0.003*[#  16]+0.002*[#  37]+0.002*[#  47]+0.002*[#  44]+
          +0.002*[#  54]+
    |psi|^2 = 0.991
==== e(  35) =    -1.44098 eV ==== 
     psi = 0.278*[#  35]+0.268*[#   8]+0.061*[#  45]+0.059*[#  55]+0.053*[#   7]+
          +0.051*[#  34]+0.041*[#  53]+0.041*[#  17]+0.039*[#  43]+0.039*[#  26]+
          +0.011*[#  27]+0.011*[#  18]+0.005*[#   6]+0.004*[#  33]+0.003*[#  51]+
          +0.003*[#  41]+0.003*[#  54]+0.003*[#  44]+0.002*[#  15]+0.002*[#  24]+
          +0.002*[#   9]+0.002*[#  36]+0.002*[#  40]+0.002*[#  50]+0.001*[#  16]+
          +0.001*[#  25]+
    |psi|^2 = 0.991
==== e(  36) =    -1.38110 eV ==== 
     psi = 0.309*[#   8]+0.298*[#  35]+0.055*[#  34]+0.053*[#   7]+0.034*[#  43]+
          +0.033*[#  53]+0.030*[#  55]+0.029*[#  45]+0.028*[#  26]+0.027*[#  17]+
          +0.010*[#  33]+0.010*[#   6]+0.007*[#  15]+0.007*[#  24]+0.006*[#  18]+
          +0.006*[#  27]+0.006*[#  44]+0.006*[#  46]+0.006*[#  54]+0.006*[#  56]+
          +0.005*[#  42]+0.006*[#  52]+0.002*[#  41]+0.002*[#  51]+0.002*[#  40]+
          +0.002*[#  50]+
    |psi|^2 = 0.991
==== e(  37) =    -0.73041 eV ==== 
     psi = 0.131*[#  16]+0.119*[#  25]+0.115*[#  36]+0.102*[#   9]+0.069*[#  52]+
          +0.066*[#  43]+0.062*[#  42]+0.060*[#  53]+0.046*[#  55]+0.043*[#  15]+
          +0.043*[#  45]+0.038*[#  24]+0.019*[#  46]+0.019*[#  44]+0.017*[#  56]+
          +0.017*[#  54]+0.008*[#  26]+0.006*[#  17]+0.003*[#  18]+0.003*[#  41]+
          +0.002*[#  27]+0.002*[#  51]+
    |psi|^2 = 0.994
==== e(  38) =    -0.69919 eV ==== 
     psi = 0.128*[#   9]+0.116*[#  36]+0.111*[#  25]+0.099*[#  16]+0.074*[#  42]+
          +0.067*[#  52]+0.060*[#  53]+0.054*[#  43]+0.045*[#  24]+0.040*[#  15]+
          +0.027*[#  17]+0.026*[#  26]+0.023*[#  45]+0.019*[#  55]+0.018*[#  54]+
          +0.016*[#  44]+0.016*[#  56]+0.014*[#  46]+0.009*[#   8]+0.009*[#  35]+
          +0.005*[#  27]+0.005*[#  18]+0.002*[#  51]+0.002*[#  41]+
    |psi|^2 = 0.992
==== e(  39) =     0.35526 eV ==== 
     psi = 0.140*[#  16]+0.140*[#  25]+0.111*[#  27]+0.110*[#  18]+0.103*[#   9]+
          +0.103*[#  36]+0.039*[#  51]+0.039*[#  41]+0.021*[#  44]+0.021*[#  54]+
          +0.017*[#   7]+0.017*[#  34]+0.015*[#  17]+0.015*[#  26]+0.014*[#   8]+
          +0.014*[#  35]+0.004*[#  42]+0.004*[#  52]+0.004*[#  39]+0.004*[#  49]+
          +0.003*[#  43]+0.003*[#  53]+0.003*[#  15]+0.003*[#  24]+0.003*[#  45]+
          +0.003*[#  55]+0.001*[#   6]+0.001*[#  33]+
    |psi|^2 = 0.955
==== e(  40) =     0.39859 eV ==== 
     psi = 0.179*[#   9]+0.177*[#  36]+0.087*[#  16]+0.087*[#  25]+0.045*[#  51]+
          +0.045*[#  41]+0.036*[#   7]+0.035*[#  34]+0.034*[#  42]+0.033*[#  52]+
          +0.031*[#  45]+0.031*[#  55]+0.021*[#  54]+0.021*[#  44]+0.015*[#  17]+
          +0.014*[#  26]+0.009*[#  27]+0.009*[#  18]+0.009*[#  56]+0.009*[#  46]+
          +0.008*[#   8]+0.008*[#  35]+0.003*[#  39]+0.003*[#  49]+0.002*[#   6]+
          +0.002*[#  33]+0.002*[#  43]+0.002*[#  53]+0.001*[#  40]+0.001*[#  50]+
    |psi|^2 = 0.961
==== e(  41) =     0.56771 eV ==== 
     psi = 0.278*[#  27]+0.265*[#  18]+0.069*[#  17]+0.065*[#  26]+0.039*[#  42]+
          +0.037*[#  16]+0.035*[#  25]+0.035*[#  52]+0.023*[#  45]+0.021*[#  55]+
          +0.017*[#   8]+0.017*[#  35]+0.012*[#  41]+0.011*[#  51]+0.006*[#  36]+
          +0.006*[#  34]+0.006*[#   7]+0.005*[#   9]+0.004*[#  56]+0.003*[#  46]+
          +0.003*[#  43]+0.003*[#  53]+
    |psi|^2 = 0.969
==== e(  42) =     0.61035 eV ==== 
     psi = 0.158*[#  18]+0.144*[#  27]+0.093*[#  52]+0.089*[#  42]+0.064*[#  55]+
          +0.062*[#  26]+0.062*[#   9]+0.062*[#  36]+0.061*[#  45]+0.058*[#  17]+
          +0.020*[#  44]+0.020*[#  54]+0.013*[#   7]+0.013*[#  34]+0.012*[#  46]+
          +0.012*[#  56]+0.009*[#  51]+0.009*[#  41]+0.007*[#  25]+0.006*[#  16]+
          +0.001*[#  38]+0.001*[#  48]+
    |psi|^2 = 0.980
==== e(  43) =     1.58740 eV ==== 
     psi = 0.256*[#   7]+0.247*[#  34]+0.054*[#  36]+0.053*[#   9]+0.040*[#  35]+
          +0.039*[#   8]+0.031*[#  16]+0.029*[#  25]+0.025*[#  53]+0.024*[#  42]+
          +0.024*[#  52]+0.023*[#  43]+0.017*[#  45]+0.016*[#  44]+0.016*[#   6]+
          +0.016*[#  54]+0.015*[#  33]+0.015*[#  55]+0.007*[#  17]+0.007*[#  26]+
          +0.007*[#  46]+0.007*[#  56]+0.005*[#  41]+0.004*[#  51]+0.003*[#  15]+
          +0.003*[#  24]+0.002*[#  27]+0.002*[#  18]+
    |psi|^2 = 0.992
==== e(  44) =     1.65920 eV ==== 
     psi = 0.133*[#  55]+0.130*[#  45]+0.123*[#  34]+0.114*[#   7]+0.083*[#  51]+
          +0.083*[#  41]+0.046*[#  18]+0.045*[#  27]+0.040*[#  43]+0.038*[#  53]+
          +0.031*[#  25]+0.030*[#  16]+0.020*[#   8]+0.018*[#  35]+0.009*[#  33]+
          +0.008*[#   6]+0.007*[#  26]+0.007*[#  17]+0.007*[#   9]+0.006*[#  54]+
          +0.006*[#  44]+0.006*[#  36]+
    |psi|^2 = 0.994
==== e(  45) =     1.74513 eV ==== 
     psi = 0.141*[#  41]+0.134*[#  51]+0.124*[#  55]+0.124*[#  45]+0.075*[#  16]+
          +0.069*[#  25]+0.053*[#  18]+0.050*[#  27]+0.031*[#  44]+0.029*[#  36]+
          +0.028*[#  54]+0.025*[#   9]+0.019*[#  53]+0.019*[#   7]+0.018*[#  43]+
          +0.014*[#  34]+0.013*[#  52]+0.011*[#  42]+0.003*[#  15]+0.003*[#  35]+
          +0.003*[#  24]+0.002*[#   8]+0.002*[#  46]+0.002*[#  56]+0.001*[#  17]+
          +0.001*[#   6]+0.001*[#  26]+
    |psi|^2 = 0.994
==== e(  46) =     1.78284 eV ==== 
     psi = 0.162*[#  34]+0.157*[#   7]+0.078*[#   9]+0.074*[#  36]+0.068*[#  25]+
          +0.062*[#  16]+0.057*[#  51]+0.049*[#  41]+0.040*[#  54]+0.037*[#  44]+
          +0.028*[#   8]+0.027*[#  35]+0.025*[#  42]+0.023*[#  52]+0.015*[#  27]+
          +0.013*[#  18]+0.009*[#  33]+0.009*[#   6]+0.008*[#  56]+0.008*[#  46]+
          +0.006*[#  26]+0.006*[#  17]+0.006*[#  43]+0.005*[#  53]+0.004*[#  24]+
          +0.004*[#  15]+0.002*[#  45]+0.001*[#  38]+0.001*[#  48]+
    |psi|^2 = 0.989
==== e(  47) =     4.80362 eV ==== 
     psi = 0.196*[#  43]+0.172*[#  53]+0.155*[#  44]+0.142*[#  54]+0.055*[#   8]+
          +0.049*[#  35]+0.036*[#  52]+0.030*[#  42]+0.024*[#  18]+0.020*[#  27]+
          +0.015*[#  41]+0.015*[#  51]+0.013*[#  55]+0.011*[#  45]+0.007*[#  36]+
          +0.006*[#   9]+0.005*[#  26]+0.005*[#  17]+0.003*[#  46]+0.002*[#  56]+
          +0.002*[#  33]+0.001*[#   6]+0.001*[#   7]+0.001*[#  34]+
    |psi|^2 = 0.969
==== e(  48) =     4.84299 eV ==== 
     psi = 0.215*[#  53]+0.194*[#  43]+0.106*[#  54]+0.088*[#  44]+0.066*[#  42]+
          +0.061*[#  52]+0.057*[#  35]+0.051*[#   8]+0.037*[#  27]+0.035*[#  18]+
          +0.009*[#  45]+0.008*[#  55]+0.004*[#   9]+0.004*[#   6]+0.004*[#  33]+
          +0.004*[#  36]+0.003*[#  56]+0.002*[#  46]+0.001*[#  51]+
    |psi|^2 = 0.953
==== e(  49) =     5.03217 eV ==== 
     psi = 0.174*[#  44]+0.159*[#  54]+0.113*[#  41]+0.105*[#  51]+0.058*[#  53]+
          +0.058*[#  43]+0.045*[#  18]+0.044*[#  52]+0.043*[#  42]+0.043*[#  27]+
          +0.021*[#  46]+0.019*[#  34]+0.020*[#  56]+0.019*[#   7]+0.009*[#  35]+
          +0.008*[#   8]+0.007*[#  33]+0.006*[#   6]+0.004*[#  26]+0.004*[#  17]+
          +0.002*[#  16]+0.002*[#  25]+
    |psi|^2 = 0.963
==== e(  50) =     5.07143 eV ==== 
     psi = 0.234*[#  54]+0.223*[#  44]+0.133*[#  51]+0.126*[#  41]+0.041*[#  27]+
          +0.038*[#  18]+0.036*[#  42]+0.033*[#  52]+0.017*[#  53]+0.016*[#  56]+
          +0.015*[#  46]+0.014*[#  43]+0.010*[#   7]+0.010*[#  17]+0.009*[#  26]+
          +0.009*[#  34]+0.004*[#   6]+0.004*[#  33]+
    |psi|^2 = 0.975
==== e(  51) =     5.33827 eV ==== 
     psi = 0.076*[#  51]+0.073*[#  41]+0.073*[#  17]+0.071*[#  26]+0.064*[#  53]+
          +0.062*[#  43]+0.058*[#  54]+0.057*[#  44]+0.045*[#  27]+0.043*[#  56]+
          +0.043*[#  18]+0.042*[#  46]+0.022*[#  45]+0.021*[#  55]+0.021*[#  35]+
          +0.020*[#   8]+0.019*[#   9]+0.018*[#  36]+0.016*[#  42]+0.015*[#   7]+
          +0.015*[#  52]+0.015*[#  34]+0.008*[#  25]+0.008*[#  16]+0.003*[#   6]+
          +0.003*[#  33]+
    |psi|^2 = 0.917
==== e(  52) =     5.44352 eV ==== 
     psi = 0.102*[#  41]+0.099*[#  51]+0.071*[#  26]+0.068*[#  17]+0.064*[#  18]+
          +0.063*[#  27]+0.049*[#  44]+0.048*[#  54]+0.040*[#  46]+0.038*[#  56]+
          +0.038*[#  43]+0.036*[#  53]+0.026*[#  55]+0.026*[#  45]+0.019*[#  34]+
          +0.018*[#   7]+0.017*[#  52]+0.017*[#  42]+0.014*[#   8]+0.014*[#  35]+
          +0.011*[#  36]+0.011*[#   9]+0.009*[#  16]+0.009*[#  25]+0.004*[#  33]+
          +0.003*[#   6]+
    |psi|^2 = 0.915
==== e(  53) =     7.21836 eV ==== 
     psi = 0.122*[#  42]+0.105*[#  52]+0.081*[#  45]+0.079*[#  25]+0.067*[#  16]+
          +0.066*[#  55]+0.064*[#   7]+0.059*[#   9]+0.053*[#  34]+0.049*[#  36]+
          +0.031*[#  51]+0.025*[#  41]+0.018*[#  24]+0.016*[#  15]+0.014*[#   6]+
          +0.012*[#  33]+0.006*[#  56]+0.005*[#  46]+0.004*[#  53]+0.003*[#  43]+
    |psi|^2 = 0.882
==== e(  54) =     7.24968 eV ==== 
     psi = 0.100*[#  55]+0.093*[#  52]+0.085*[#  45]+0.076*[#  42]+0.076*[#  34]+
          +0.064*[#   7]+0.064*[#  16]+0.059*[#  36]+0.053*[#  25]+0.050*[#   9]+
          +0.036*[#  41]+0.030*[#  51]+0.015*[#  15]+0.014*[#  33]+0.012*[#  24]+
          +0.012*[#   6]+0.006*[#  46]+0.006*[#  43]+0.006*[#  56]+0.005*[#  53]+
          +0.003*[#  18]+0.003*[#  27]+
    |psi|^2 = 0.871
==== e(  55) =     8.40183 eV ==== 
     psi = 0.021*[#  56]+0.020*[#  46]+0.012*[#  18]+0.012*[#  27]+0.005*[#   9]+
          +0.005*[#  36]+0.005*[#  52]+0.005*[#  42]+0.005*[#   8]+0.005*[#  35]+
          +0.002*[#  43]+0.002*[#  53]+0.002*[#  45]+0.002*[#   7]+0.002*[#  55]+
          +0.002*[#  34]+0.002*[#   6]+0.002*[#  16]+0.002*[#  33]+0.001*[#  25]+
    |psi|^2 = 0.115
==== e(  56) =     8.54220 eV ==== 
     psi = 0.178*[#  46]+0.177*[#  56]+0.034*[#  45]+0.034*[#  55]+0.033*[#   7]+
          +0.033*[#  34]+0.031*[#  16]+0.030*[#  25]+0.021*[#   9]+0.021*[#  36]+
          +0.017*[#  53]+0.016*[#  43]+0.012*[#  52]+0.011*[#  42]+0.008*[#  17]+
          +0.008*[#  26]+0.007*[#   6]+0.007*[#  33]+0.006*[#  15]+0.006*[#  24]+
          +0.004*[#  37]+0.004*[#  47]+0.004*[#  44]+0.004*[#  54]+0.004*[#  35]+
          +0.004*[#   8]+0.002*[#  41]+0.002*[#  51]+
    |psi|^2 = 0.721
==== e(  57) =     8.56730 eV ==== 
     psi = 0.056*[#  56]+0.053*[#  46]+0.041*[#  25]+0.039*[#  16]+0.030*[#  42]+
          +0.029*[#  52]+0.008*[#  24]+0.008*[#  15]+0.006*[#  45]+0.006*[#  55]+
          +0.006*[#   9]+0.005*[#   7]+0.005*[#  36]+0.005*[#  34]+0.004*[#  17]+
          +0.003*[#  26]+0.003*[#  27]+0.003*[#  18]+0.003*[#  53]+0.003*[#  54]+
          +0.002*[#  43]+0.002*[#  44]+0.001*[#  37]+0.001*[#  47]+
    |psi|^2 = 0.325
==== e(  58) =     8.74822 eV ==== 
     psi = 0.150*[#  46]+0.145*[#  56]+0.028*[#  34]+0.028*[#   7]+0.027*[#  55]+
          +0.027*[#  45]+0.019*[#  36]+0.019*[#   9]+0.015*[#  43]+0.014*[#  53]+
          +0.010*[#  16]+0.010*[#  25]+0.008*[#  33]+0.008*[#   6]+0.008*[#   8]+
          +0.007*[#  35]+0.007*[#  18]+0.007*[#  27]+0.006*[#  26]+0.006*[#  17]+
          +0.003*[#  37]+0.003*[#  47]+0.003*[#  15]+0.003*[#  24]+0.003*[#  44]+
          +0.003*[#  54]+
    |psi|^2 = 0.566
==== e(  59) =     9.45348 eV ==== 
     psi = 0.012*[#  46]+0.012*[#  56]+0.007*[#  41]+0.007*[#  51]+0.005*[#  16]+
          +0.005*[#  25]+0.004*[#  18]+0.004*[#  27]+0.002*[#  45]+0.002*[#  55]+
          +0.001*[#   8]+0.001*[#  35]+
    |psi|^2 = 0.067
==== e(  60) =     9.67288 eV ==== 
     psi = 0.011*[#  25]+0.011*[#  16]+0.009*[#  41]+0.009*[#  51]+0.007*[#  56]+
          +0.007*[#  46]+0.006*[#  45]+0.006*[#  55]+0.003*[#   9]+0.003*[#  36]+
          +0.002*[#  18]+0.002*[#  27]+0.002*[#  15]+0.002*[#  24]+0.002*[#  42]+
          +0.002*[#  52]+
    |psi|^2 = 0.086

 k =  -0.4666666667  0.0000000000  0.0000000000
==== e(   1) =   -70.91974 eV ==== 
     psi = 0.501*[#  37]+0.481*[#  47]+0.002*[#  17]+0.002*[#  26]+0.002*[#   8]+
          +0.001*[#  35]+0.001*[#  45]+0.001*[#  46]+0.001*[#  55]+0.001*[#  56]+
          +0.001*[#  16]+0.001*[#  25]+
    |psi|^2 = 1.000
==== e(   2) =   -70.91620 eV ==== 
     psi = 0.500*[#  47]+0.480*[#  37]+0.003*[#  46]+0.003*[#  56]+0.002*[#  17]+
          +0.002*[#  26]+0.001*[#   8]+0.002*[#  35]+0.001*[#  45]+0.001*[#  55]+
    |psi|^2 = 1.000
==== e(   3) =   -35.32166 eV ==== 
     psi = 0.356*[#  49]+0.351*[#  39]+0.125*[#  40]+0.122*[#  50]+0.011*[#  38]+
          +0.010*[#  48]+0.002*[#  16]+0.002*[#  25]+0.002*[#   9]+0.002*[#  36]+
          +0.001*[#  10]+0.001*[#  19]+0.001*[#  11]+0.001*[#  20]+0.001*[#   3]+
          +0.001*[#  30]+
    |psi|^2 = 1.000
==== e(   4) =   -35.31752 eV ==== 
     psi = 0.326*[#  39]+0.320*[#  49]+0.154*[#  50]+0.152*[#  40]+0.012*[#  38]+
          +0.012*[#  48]+0.002*[#  16]+0.003*[#  25]+0.002*[#  10]+0.002*[#  19]+
          +0.001*[#   9]+0.001*[#  36]+
    |psi|^2 = 1.000
==== e(   5) =   -35.14590 eV ==== 
     psi = 0.421*[#  38]+0.403*[#  48]+0.046*[#  49]+0.044*[#  39]+0.029*[#  40]+
          +0.028*[#  50]+0.006*[#  20]+0.005*[#  11]+0.002*[#  17]+0.002*[#  26]+
          +0.001*[#   8]+0.001*[#  16]+0.001*[#  35]+0.001*[#   5]+0.001*[#  25]+
          +0.001*[#  32]+
    |psi|^2 = 1.000
==== e(   6) =   -35.14042 eV ==== 
     psi = 0.411*[#  48]+0.392*[#  38]+0.057*[#  39]+0.055*[#  49]+0.028*[#  50]+
          +0.027*[#  40]+0.006*[#  11]+0.006*[#  20]+0.002*[#  17]+0.002*[#  26]+
          +0.001*[#   8]+0.001*[#  35]+
    |psi|^2 = 1.000
==== e(   7) =   -34.93725 eV ==== 
     psi = 0.312*[#  50]+0.308*[#  40]+0.111*[#  39]+0.109*[#  49]+0.070*[#  48]+
          +0.070*[#  38]+0.004*[#  12]+0.004*[#  21]+0.001*[#  45]+0.001*[#  55]+
    |psi|^2 = 1.000
==== e(   8) =   -34.91603 eV ==== 
     psi = 0.341*[#  40]+0.337*[#  50]+0.091*[#  49]+0.090*[#  39]+0.062*[#  38]+
          +0.061*[#  48]+0.003*[#  12]+0.003*[#  21]+0.001*[#  45]+0.001*[#  55]+
    |psi|^2 = 1.000
==== e(   9) =   -33.69886 eV ==== 
     psi = 0.656*[#  23]+0.173*[#  14]+0.107*[#  13]+0.031*[#  22]+0.012*[#  10]+
          +0.007*[#  20]+0.004*[#  12]+0.004*[#  19]+0.003*[#  11]+
    |psi|^2 = 1.000
==== e(  10) =   -33.69865 eV ==== 
     psi = 0.643*[#  14]+0.176*[#  23]+0.120*[#  22]+0.030*[#  13]+0.013*[#  19]+
          +0.006*[#  11]+0.004*[#  21]+0.003*[#  10]+0.001*[#  12]+0.001*[#  20]+
    |psi|^2 = 1.000
==== e(  11) =   -33.69321 eV ==== 
     psi = 0.469*[#  22]+0.314*[#  13]+0.104*[#  14]+0.062*[#  23]+0.015*[#  11]+
          +0.014*[#  19]+0.009*[#  10]+0.008*[#  20]+0.002*[#  21]+
    |psi|^2 = 1.000
==== e(  12) =   -33.69263 eV ==== 
     psi = 0.465*[#  13]+0.296*[#  22]+0.094*[#  23]+0.067*[#  14]+0.030*[#  20]+
          +0.022*[#  11]+0.014*[#  10]+0.009*[#  19]+0.002*[#  12]+0.001*[#  21]+
    |psi|^2 = 1.000
==== e(  13) =   -33.67768 eV ==== 
     psi = 0.429*[#  20]+0.411*[#  11]+0.046*[#  12]+0.045*[#  21]+0.027*[#  13]+
          +0.026*[#  22]+0.004*[#  38]+0.003*[#  48]+0.002*[#   5]+0.001*[#  32]+
    |psi|^2 = 1.000
==== e(  14) =   -33.67728 eV ==== 
     psi = 0.436*[#  11]+0.419*[#  20]+0.053*[#  21]+0.050*[#  12]+0.013*[#  22]+
          +0.012*[#  13]+0.003*[#  48]+0.003*[#  38]+0.002*[#   5]+0.002*[#  32]+
          +0.001*[#  14]+
    |psi|^2 = 1.000
==== e(  15) =   -33.65018 eV ==== 
     psi = 0.555*[#  19]+0.396*[#  10]+0.022*[#  22]+0.016*[#  13]+0.002*[#  21]+
          +0.002*[#  39]+0.001*[#  14]+0.001*[#  49]+0.001*[#  12]+
    |psi|^2 = 1.000
==== e(  16) =   -33.64977 eV ==== 
     psi = 0.551*[#  10]+0.391*[#  19]+0.023*[#  13]+0.017*[#  22]+0.005*[#  21]+
          +0.005*[#  12]+0.002*[#  49]+0.001*[#  39]+0.001*[#  23]+
    |psi|^2 = 1.000
==== e(  17) =   -33.64828 eV ==== 
     psi = 0.447*[#  21]+0.430*[#  12]+0.049*[#  11]+0.047*[#  20]+0.005*[#  48]+
          +0.004*[#  38]+0.003*[#  14]+0.003*[#  23]+0.002*[#  19]+0.001*[#  13]+
          +0.001*[#  10]+0.001*[#  22]+
    |psi|^2 = 1.000
==== e(  18) =   -33.64618 eV ==== 
     psi = 0.451*[#  12]+0.430*[#  21]+0.041*[#  20]+0.039*[#  11]+0.006*[#  19]+
          +0.006*[#  10]+0.005*[#  38]+0.005*[#  48]+0.003*[#  14]+0.003*[#  23]+
          +0.002*[#  13]+0.002*[#  22]+
    |psi|^2 = 1.000
==== e(  19) =   -33.47770 eV ==== 
     psi = 0.827*[#   5]+0.110*[#   2]+0.041*[#  32]+0.006*[#  29]+0.004*[#  20]+
          +0.003*[#  38]+0.003*[#  31]+0.003*[#   4]+0.002*[#  40]+
    |psi|^2 = 1.000
==== e(  20) =   -33.47707 eV ==== 
     psi = 0.828*[#  32]+0.110*[#  29]+0.044*[#   5]+0.006*[#   2]+0.004*[#  11]+
          +0.003*[#  48]+0.002*[#   4]+0.002*[#  50]+
    |psi|^2 = 1.000
==== e(  21) =   -33.47276 eV ==== 
     psi = 0.869*[#   4]+0.063*[#   1]+0.044*[#   3]+0.016*[#  31]+0.003*[#  32]+
          +0.001*[#   5]+0.001*[#  28]+
    |psi|^2 = 1.000
==== e(  22) =   -33.47215 eV ==== 
     psi = 0.869*[#  31]+0.062*[#  28]+0.044*[#  30]+0.015*[#   4]+0.003*[#   5]+
          +0.002*[#  32]+0.001*[#   1]+
    |psi|^2 = 1.000
==== e(  23) =   -33.42755 eV ==== 
     psi = 0.635*[#   2]+0.237*[#  29]+0.085*[#   5]+0.032*[#  32]+0.006*[#  28]+
          +0.002*[#   1]+
    |psi|^2 = 1.000
==== e(  24) =   -33.42608 eV ==== 
     psi = 0.635*[#  29]+0.237*[#   2]+0.085*[#  32]+0.032*[#   5]+0.006*[#   1]+
          +0.002*[#  28]+
    |psi|^2 = 1.000
==== e(  25) =   -33.38421 eV ==== 
     psi = 0.494*[#   3]+0.327*[#   1]+0.097*[#   4]+0.042*[#  30]+0.027*[#  28]+
          +0.008*[#  31]+0.001*[#  50]+0.001*[#  29]+
    |psi|^2 = 1.000
==== e(  26) =   -33.38350 eV ==== 
     psi = 0.495*[#  30]+0.327*[#  28]+0.097*[#  31]+0.040*[#   3]+0.028*[#   1]+
          +0.008*[#   4]+0.001*[#  40]+0.001*[#   2]+
    |psi|^2 = 1.000
==== e(  27) =   -33.37553 eV ==== 
     psi = 0.470*[#   1]+0.341*[#   3]+0.103*[#  28]+0.073*[#  30]+0.005*[#  29]+
          +0.003*[#   4]+0.001*[#   2]+0.001*[#  32]+
    |psi|^2 = 1.000
==== e(  28) =   -33.37454 eV ==== 
     psi = 0.470*[#  28]+0.341*[#  30]+0.101*[#   1]+0.075*[#   3]+0.005*[#   2]+
          +0.003*[#  31]+0.001*[#   5]+
    |psi|^2 = 1.000
==== e(  29) =    -7.85882 eV ==== 
     psi = 0.341*[#  24]+0.332*[#  15]+0.063*[#  33]+0.062*[#   6]+0.038*[#  56]+
          +0.038*[#  46]+0.016*[#  42]+0.015*[#  52]+0.015*[#  35]+0.015*[#   8]+
          +0.008*[#  53]+0.008*[#  43]+0.006*[#  54]+0.006*[#  44]+0.005*[#  17]+
          +0.005*[#  26]+0.005*[#  25]+0.005*[#  16]+0.003*[#  41]+0.003*[#  51]+
          +0.002*[#  39]+0.002*[#  49]+0.001*[#   7]+0.001*[#  34]+
    |psi|^2 = 0.998
==== e(  30) =    -7.73583 eV ==== 
     psi = 0.414*[#  15]+0.405*[#  24]+0.044*[#  52]+0.044*[#  42]+0.009*[#   8]+
          +0.009*[#  43]+0.008*[#  35]+0.008*[#  53]+0.007*[#  46]+0.007*[#  56]+
          +0.006*[#  45]+0.006*[#  55]+0.004*[#   6]+0.004*[#  16]+0.004*[#  25]+
          +0.004*[#  33]+0.003*[#  44]+0.003*[#  54]+0.002*[#  41]+0.002*[#  51]+
          +0.001*[#  39]+0.001*[#  49]+
    |psi|^2 = 0.998
==== e(  31) =    -7.39576 eV ==== 
     psi = 0.351*[#  33]+0.345*[#   6]+0.069*[#  15]+0.069*[#  24]+0.038*[#  52]+
          +0.038*[#  42]+0.020*[#  55]+0.020*[#  45]+0.007*[#  26]+0.007*[#  17]+
          +0.006*[#  46]+0.006*[#  56]+0.004*[#  44]+0.004*[#  54]+0.002*[#   7]+
          +0.002*[#   8]+0.002*[#  34]+0.002*[#  35]+0.001*[#  41]+0.001*[#  51]+
    |psi|^2 = 0.999
==== e(  32) =    -7.28404 eV ==== 
     psi = 0.427*[#   6]+0.420*[#  33]+0.013*[#  56]+0.013*[#  46]+0.013*[#  45]+
          +0.012*[#  55]+0.012*[#  42]+0.011*[#  52]+0.011*[#  17]+0.011*[#  26]+
          +0.011*[#  44]+0.011*[#  54]+0.005*[#  15]+0.005*[#  43]+0.005*[#  53]+
          +0.005*[#  24]+0.003*[#   8]+0.003*[#  35]+0.002*[#   7]+0.002*[#  34]+
          +0.001*[#  39]+0.001*[#  49]+
    |psi|^2 = 0.998
==== e(  33) =    -2.05778 eV ==== 
     psi = 0.228*[#  26]+0.224*[#  17]+0.079*[#  46]+0.078*[#  56]+0.060*[#   8]+
          +0.060*[#  35]+0.033*[#  41]+0.033*[#  51]+0.026*[#  43]+0.026*[#  55]+
          +0.026*[#  53]+0.025*[#  45]+0.013*[#  33]+0.013*[#   6]+0.009*[#  18]+
          +0.009*[#  27]+0.006*[#   9]+0.006*[#  36]+0.004*[#  15]+0.004*[#  24]+
          +0.004*[#  44]+0.004*[#  54]+0.004*[#  16]+0.004*[#  25]+0.003*[#  52]+
          +0.003*[#  42]+0.002*[#  37]+0.002*[#  47]+
    |psi|^2 = 0.993
==== e(  34) =    -1.88458 eV ==== 
     psi = 0.275*[#  17]+0.271*[#  26]+0.057*[#  56]+0.056*[#  46]+0.036*[#  45]+
          +0.035*[#  55]+0.032*[#  51]+0.032*[#  41]+0.025*[#  53]+0.025*[#  43]+
          +0.021*[#  42]+0.021*[#  52]+0.019*[#   6]+0.019*[#  33]+0.012*[#  27]+
          +0.012*[#  18]+0.007*[#  35]+0.007*[#   8]+0.006*[#  24]+0.006*[#  15]+
          +0.003*[#  16]+0.003*[#  25]+0.002*[#  34]+0.002*[#  37]+0.002*[#  47]+
          +0.001*[#   7]+
    |psi|^2 = 0.990
==== e(  35) =    -1.46070 eV ==== 
     psi = 0.256*[#  35]+0.251*[#   8]+0.073*[#  45]+0.073*[#  55]+0.051*[#   7]+
          +0.050*[#  34]+0.045*[#  53]+0.044*[#  43]+0.040*[#  17]+0.039*[#  26]+
          +0.014*[#  27]+0.014*[#  18]+0.005*[#   9]+0.005*[#  36]+0.004*[#  16]+
          +0.004*[#  25]+0.004*[#  51]+0.003*[#  41]+0.003*[#   6]+0.003*[#  33]+
          +0.002*[#  44]+0.002*[#  54]+0.002*[#  40]+0.002*[#  50]+
    |psi|^2 = 0.991
==== e(  36) =    -1.33702 eV ==== 
     psi = 0.309*[#   8]+0.304*[#  35]+0.055*[#  34]+0.054*[#   7]+0.032*[#  43]+
          +0.031*[#  53]+0.017*[#  26]+0.017*[#  17]+0.016*[#  55]+0.015*[#  45]+
          +0.015*[#  33]+0.015*[#   6]+0.012*[#  46]+0.012*[#  56]+0.011*[#  15]+
          +0.011*[#  24]+0.009*[#  42]+0.009*[#  52]+0.008*[#  44]+0.008*[#  54]+
          +0.004*[#  18]+0.004*[#  16]+0.004*[#  25]+0.004*[#  27]+0.002*[#   9]+
          +0.002*[#  36]+0.002*[#  41]+0.002*[#  51]+0.001*[#  40]+0.001*[#  50]+
    |psi|^2 = 0.991
==== e(  37) =    -0.72871 eV ==== 
     psi = 0.134*[#  16]+0.129*[#  25]+0.101*[#  36]+0.095*[#   9]+0.069*[#  43]+
          +0.065*[#  53]+0.060*[#  52]+0.057*[#  42]+0.056*[#  55]+0.055*[#  45]+
          +0.039*[#  15]+0.037*[#  24]+0.019*[#  46]+0.019*[#  56]+0.017*[#  44]+
          +0.016*[#  54]+0.004*[#  35]+0.003*[#   8]+0.003*[#  41]+0.003*[#  51]+
          +0.003*[#  26]+0.002*[#  17]+0.002*[#  18]+0.002*[#  27]+0.001*[#   6]+
          +0.001*[#  33]+
    |psi|^2 = 0.995
==== e(  38) =    -0.66791 eV ==== 
     psi = 0.129*[#   9]+0.124*[#  36]+0.095*[#  25]+0.089*[#  16]+0.069*[#  42]+
          +0.066*[#  52]+0.056*[#  53]+0.053*[#  43]+0.043*[#  24]+0.041*[#  17]+
          +0.041*[#  15]+0.040*[#  26]+0.019*[#   8]+0.018*[#  35]+0.016*[#  54]+
          +0.015*[#  44]+0.014*[#  56]+0.013*[#  46]+0.012*[#  45]+0.011*[#  55]+
          +0.007*[#  27]+0.007*[#  18]+0.002*[#  51]+0.002*[#  41]+0.002*[#   7]+
          +0.002*[#  34]+0.001*[#   6]+
    |psi|^2 = 0.990
==== e(  39) =     0.27112 eV ==== 
     psi = 0.147*[#  16]+0.146*[#  25]+0.129*[#  27]+0.128*[#  18]+0.081*[#  36]+
          +0.081*[#   9]+0.032*[#  41]+0.032*[#  51]+0.024*[#  44]+0.024*[#  54]+
          +0.020*[#  17]+0.019*[#  26]+0.012*[#  42]+0.012*[#  52]+0.010*[#   7]+
          +0.011*[#   8]+0.011*[#  34]+0.010*[#  35]+0.004*[#  15]+0.004*[#  24]+
          +0.003*[#  39]+0.003*[#  49]+0.002*[#  45]+0.002*[#  55]+0.002*[#  43]+
          +0.002*[#  53]+
    |psi|^2 = 0.960
==== e(  40) =     0.32792 eV ==== 
     psi = 0.169*[#   9]+0.168*[#  36]+0.062*[#  25]+0.062*[#  16]+0.045*[#  42]+
          +0.044*[#  52]+0.040*[#  18]+0.040*[#  27]+0.038*[#  51]+0.037*[#  41]+
          +0.032*[#  45]+0.031*[#  17]+0.031*[#  55]+0.031*[#  26]+0.031*[#   7]+
          +0.031*[#  34]+0.014*[#  54]+0.014*[#  44]+0.011*[#  46]+0.011*[#  56]+
          +0.006*[#   8]+0.006*[#  35]+0.002*[#  39]+0.002*[#  49]+0.001*[#   6]+
          +0.001*[#  33]+0.001*[#  40]+0.001*[#  50]+
    |psi|^2 = 0.968
==== e(  41) =     0.62224 eV ==== 
     psi = 0.247*[#  27]+0.242*[#  18]+0.056*[#  17]+0.054*[#  26]+0.047*[#  16]+
          +0.046*[#  25]+0.027*[#   8]+0.027*[#  35]+0.025*[#  41]+0.024*[#  51]+
          +0.022*[#  34]+0.022*[#   7]+0.020*[#  36]+0.019*[#   9]+0.018*[#  45]+
          +0.017*[#  55]+0.016*[#  42]+0.015*[#  52]+0.003*[#  43]+0.003*[#  53]+
          +0.002*[#   6]+0.002*[#  33]+0.002*[#  39]+0.002*[#  49]+
    |psi|^2 = 0.961
==== e(  42) =     0.68389 eV ==== 
     psi = 0.122*[#  18]+0.116*[#  27]+0.096*[#  52]+0.095*[#  42]+0.071*[#  55]+
          +0.070*[#   9]+0.069*[#  36]+0.069*[#  45]+0.052*[#  26]+0.050*[#  17]+
          +0.028*[#  44]+0.028*[#  54]+0.017*[#   7]+0.016*[#  34]+0.013*[#  51]+
          +0.013*[#  41]+0.011*[#  25]+0.011*[#  46]+0.011*[#  56]+0.011*[#  16]+
          +0.001*[#  38]+
    |psi|^2 = 0.979
==== e(  43) =     1.51213 eV ==== 
     psi = 0.228*[#   7]+0.223*[#  34]+0.067*[#  36]+0.066*[#   9]+0.047*[#  16]+
          +0.046*[#  25]+0.034*[#  35]+0.033*[#   8]+0.031*[#  42]+0.031*[#  52]+
          +0.022*[#  53]+0.021*[#  43]+0.020*[#  44]+0.019*[#  54]+0.014*[#   6]+
          +0.014*[#  33]+0.010*[#  41]+0.009*[#  51]+0.008*[#  45]+0.007*[#  46]+
          +0.007*[#  56]+0.007*[#  55]+0.004*[#  27]+0.004*[#  15]+0.004*[#  17]+
          +0.004*[#  24]+0.004*[#  18]+0.004*[#  26]+
    |psi|^2 = 0.992
==== e(  44) =     1.63233 eV ==== 
     psi = 0.129*[#  55]+0.127*[#  45]+0.099*[#  51]+0.099*[#  41]+0.085*[#  34]+
          +0.080*[#   7]+0.053*[#  18]+0.052*[#  27]+0.044*[#  25]+0.042*[#  16]+
          +0.036*[#  43]+0.035*[#  53]+0.018*[#   9]+0.017*[#  36]+0.014*[#   8]+
          +0.013*[#  35]+0.009*[#  54]+0.009*[#  44]+0.007*[#  33]+0.007*[#   6]+
          +0.006*[#  26]+0.006*[#  17]+
    |psi|^2 = 0.993
==== e(  45) =     1.78195 eV ==== 
     psi = 0.138*[#  41]+0.136*[#  51]+0.134*[#  45]+0.133*[#  55]+0.061*[#  16]+
          +0.059*[#  25]+0.051*[#  18]+0.050*[#  27]+0.031*[#   7]+0.028*[#  34]+
          +0.027*[#  44]+0.026*[#  54]+0.022*[#  53]+0.022*[#  43]+0.016*[#  36]+
          +0.015*[#   9]+0.011*[#  52]+0.011*[#  42]+0.005*[#  35]+0.004*[#   8]+
          +0.002*[#  15]+0.002*[#  24]+0.002*[#  17]+0.001*[#   6]+0.001*[#  26]+
          +0.001*[#  33]+0.001*[#  46]+
    |psi|^2 = 0.994
==== e(  46) =     1.87354 eV ==== 
     psi = 0.199*[#  34]+0.195*[#   7]+0.069*[#   9]+0.068*[#  36]+0.051*[#  25]+
          +0.049*[#  16]+0.037*[#  54]+0.035*[#  44]+0.036*[#  51]+0.035*[#   8]+
          +0.034*[#  35]+0.033*[#  41]+0.019*[#  42]+0.018*[#  52]+0.012*[#  27]+
          +0.011*[#  33]+0.011*[#   6]+0.011*[#  18]+0.010*[#  43]+0.010*[#  26]+
          +0.010*[#  17]+0.010*[#  53]+0.007*[#  46]+0.007*[#  56]+0.003*[#  15]+
          +0.003*[#  24]+0.001*[#  38]+0.001*[#  48]+
    |psi|^2 = 0.987
==== e(  47) =     4.75476 eV ==== 
     psi = 0.183*[#  44]+0.177*[#  54]+0.163*[#  43]+0.153*[#  53]+0.048*[#   8]+
          +0.046*[#  35]+0.029*[#  51]+0.028*[#  41]+0.022*[#  52]+0.020*[#  42]+
          +0.016*[#  18]+0.015*[#  27]+0.014*[#  55]+0.013*[#  45]+0.008*[#  36]+
          +0.008*[#   9]+0.008*[#  17]+0.008*[#  26]+0.004*[#   7]+0.004*[#  34]+
          +0.004*[#  46]+0.003*[#  56]+
    |psi|^2 = 0.976
==== e(  48) =     4.83912 eV ==== 
     psi = 0.196*[#  53]+0.191*[#  43]+0.097*[#  54]+0.087*[#  44]+0.078*[#  42]+
          +0.078*[#  52]+0.051*[#  35]+0.049*[#   8]+0.041*[#  27]+0.041*[#  18]+
          +0.008*[#  45]+0.007*[#  55]+0.004*[#   6]+0.004*[#  33]+0.004*[#  56]+
          +0.004*[#  46]+0.002*[#   9]+0.002*[#  36]+
    |psi|^2 = 0.946
==== e(  49) =     5.02954 eV ==== 
     psi = 0.128*[#  44]+0.119*[#  54]+0.100*[#  41]+0.095*[#  51]+0.088*[#  53]+
          +0.085*[#  43]+0.050*[#  18]+0.049*[#  27]+0.048*[#  42]+0.048*[#  52]+
          +0.023*[#  34]+0.022*[#   7]+0.020*[#  46]+0.020*[#  56]+0.016*[#  35]+
          +0.015*[#   8]+0.007*[#   6]+0.007*[#  33]+0.004*[#  16]+0.004*[#  25]+
          +0.002*[#  26]+0.002*[#  17]+
    |psi|^2 = 0.956
==== e(  50) =     5.09223 eV ==== 
     psi = 0.223*[#  54]+0.218*[#  44]+0.146*[#  51]+0.142*[#  41]+0.047*[#  27]+
          +0.045*[#  18]+0.037*[#  42]+0.035*[#  52]+0.016*[#  17]+0.016*[#  26]+
          +0.011*[#  56]+0.010*[#  46]+0.005*[#   7]+0.005*[#  53]+0.005*[#  34]+
          +0.004*[#  43]+0.003*[#   6]+0.003*[#  33]+0.001*[#  16]+0.001*[#  25]+
    |psi|^2 = 0.975
==== e(  51) =     5.30316 eV ==== 
     psi = 0.086*[#  53]+0.085*[#  43]+0.076*[#  54]+0.075*[#  44]+0.068*[#  17]+
          +0.067*[#  26]+0.052*[#  51]+0.051*[#  41]+0.045*[#  56]+0.044*[#  46]+
          +0.028*[#  27]+0.028*[#  18]+0.025*[#  35]+0.025*[#   8]+0.024*[#   9]+
          +0.024*[#  36]+0.020*[#  45]+0.020*[#  55]+0.015*[#   7]+0.015*[#  34]+
          +0.010*[#  42]+0.010*[#  52]+0.007*[#  25]+0.007*[#  16]+0.004*[#   6]+
          +0.004*[#  33]+
    |psi|^2 = 0.920
==== e(  52) =     5.50205 eV ==== 
     psi = 0.109*[#  41]+0.108*[#  51]+0.068*[#  18]+0.067*[#  26]+0.067*[#  27]+
          +0.066*[#  17]+0.048*[#  44]+0.047*[#  54]+0.037*[#  46]+0.036*[#  56]+
          +0.032*[#  43]+0.031*[#  53]+0.029*[#  55]+0.029*[#  45]+0.022*[#  34]+
          +0.022*[#   7]+0.014*[#  52]+0.014*[#  42]+0.013*[#   8]+0.012*[#  35]+
          +0.008*[#  16]+0.008*[#  25]+0.008*[#  36]+0.008*[#   9]+0.004*[#   6]+
          +0.004*[#  33]+
    |psi|^2 = 0.916
==== e(  53) =     7.18235 eV ==== 
     psi = 0.132*[#  42]+0.125*[#  52]+0.083*[#  25]+0.078*[#  16]+0.067*[#  45]+
          +0.061*[#  55]+0.056*[#   9]+0.053*[#   7]+0.052*[#  36]+0.048*[#  34]+
          +0.025*[#  51]+0.023*[#  41]+0.019*[#  24]+0.018*[#  15]+0.013*[#   6]+
          +0.012*[#  33]+0.006*[#  56]+0.005*[#  46]+0.003*[#  53]+0.003*[#  43]+
          +0.001*[#  44]+0.001*[#   8]+0.001*[#  35]+0.001*[#  54]+
    |psi|^2 = 0.888
==== e(  54) =     7.24917 eV ==== 
     psi = 0.105*[#  55]+0.099*[#  45]+0.076*[#  34]+0.076*[#  52]+0.071*[#   7]+
          +0.069*[#  42]+0.057*[#  36]+0.055*[#  16]+0.053*[#   9]+0.050*[#  25]+
          +0.035*[#  41]+0.032*[#  51]+0.013*[#  33]+0.013*[#  15]+0.012*[#   6]+
          +0.012*[#  24]+0.007*[#  43]+0.007*[#  53]+0.007*[#  46]+0.006*[#  56]+
          +0.006*[#  27]+0.005*[#  18]+
    |psi|^2 = 0.871
==== e(  55) =     8.29047 eV ==== 
     psi = 0.066*[#  56]+0.065*[#  46]+0.015*[#   9]+0.015*[#  36]+0.012*[#  18]+
          +0.012*[#  27]+0.008*[#   8]+0.008*[#  35]+0.007*[#  45]+0.007*[#  55]+
          +0.006*[#  43]+0.006*[#  53]+0.005*[#   7]+0.005*[#  34]+0.003*[#   6]+
          +0.003*[#  33]+0.002*[#  17]+0.002*[#  54]+0.002*[#  26]+0.002*[#  44]+
          +0.002*[#  37]+0.002*[#  47]+
    |psi|^2 = 0.254
==== e(  56) =     8.50781 eV ==== 
     psi = 0.131*[#  46]+0.131*[#  56]+0.031*[#  45]+0.031*[#  55]+0.030*[#   7]+
          +0.030*[#  34]+0.024*[#  16]+0.024*[#  25]+0.014*[#  53]+0.013*[#   9]+
          +0.013*[#  43]+0.013*[#  36]+0.010*[#  52]+0.010*[#  42]+0.007*[#  17]+
          +0.007*[#  26]+0.005*[#   6]+0.005*[#  33]+0.005*[#  15]+0.005*[#  24]+
          +0.004*[#  41]+0.004*[#  51]+0.003*[#  37]+0.003*[#  47]+0.002*[#  44]+
          +0.002*[#  54]+0.001*[#   8]+0.001*[#  35]+
    |psi|^2 = 0.561
==== e(  57) =     8.61893 eV ==== 
     psi = 0.096*[#  56]+0.096*[#  46]+0.054*[#  25]+0.054*[#  16]+0.035*[#  42]+
          +0.035*[#  52]+0.012*[#  24]+0.011*[#  15]+0.010*[#   9]+0.010*[#  36]+
          +0.008*[#  45]+0.008*[#  55]+0.007*[#   7]+0.007*[#  34]+0.005*[#  17]+
          +0.005*[#  26]+0.004*[#  43]+0.004*[#  44]+0.004*[#  53]+0.004*[#  54]+
          +0.002*[#  37]+0.002*[#  47]+0.002*[#   8]+0.002*[#  35]+0.001*[#   6]+
          +0.001*[#  33]+
    |psi|^2 = 0.482
==== e(  58) =     8.90244 eV ==== 
     psi = 0.111*[#  46]+0.109*[#  56]+0.025*[#  34]+0.025*[#   7]+0.023*[#  55]+
          +0.023*[#  45]+0.014*[#  36]+0.014*[#   9]+0.012*[#  43]+0.012*[#  53]+
          +0.007*[#  33]+0.007*[#   6]+0.007*[#  18]+0.007*[#  27]+0.006*[#   8]+
          +0.006*[#  35]+0.005*[#  16]+0.005*[#  25]+0.004*[#  17]+0.004*[#  26]+
          +0.002*[#  37]+0.002*[#  47]+0.002*[#  44]+0.002*[#  54]+0.001*[#  15]+
          +0.001*[#  24]+
    |psi|^2 = 0.440
==== e(  59) =     9.33949 eV ==== 
     psi = 0.010*[#  56]+0.010*[#  46]+0.005*[#  18]+0.005*[#  27]+0.005*[#  41]+
          +0.005*[#  51]+0.002*[#  16]+0.002*[#  25]+0.001*[#   8]+0.002*[#  35]+
    |psi|^2 = 0.052
==== e(  60) =     9.71442 eV ==== 
     psi = 0.012*[#  16]+0.012*[#  25]+0.010*[#  45]+0.010*[#  55]+0.010*[#  41]+
          +0.010*[#  51]+0.003*[#   9]+0.003*[#  36]+0.002*[#  42]+0.002*[#  52]+
          +0.002*[#  46]+0.002*[#  56]+0.002*[#  15]+0.002*[#  24]+0.001*[#  43]+
          +0.002*[#  53]+
    |psi|^2 = 0.090

 k =  -0.4500000000  0.0000000000  0.0000000000
==== e(   1) =   -70.92065 eV ==== 
     psi = 0.497*[#  37]+0.484*[#  47]+0.002*[#  17]+0.002*[#  26]+0.002*[#   8]+
          +0.001*[#  35]+0.001*[#  16]+0.001*[#  25]+0.001*[#  45]+0.001*[#  55]+
          +0.001*[#  46]+0.001*[#  56]+
    |psi|^2 = 1.000
==== e(   2) =   -70.91535 eV ==== 
     psi = 0.497*[#  47]+0.484*[#  37]+0.003*[#  46]+0.003*[#  56]+0.002*[#  17]+
          +0.002*[#  26]+0.001*[#   8]+0.001*[#  35]+0.001*[#  45]+0.001*[#  55]+
    |psi|^2 = 1.000
==== e(   3) =   -35.32157 eV ==== 
     psi = 0.362*[#  49]+0.359*[#  39]+0.118*[#  40]+0.116*[#  50]+0.010*[#  38]+
          +0.010*[#  48]+0.002*[#  16]+0.002*[#  25]+0.002*[#   9]+0.002*[#  36]+
          +0.001*[#  10]+0.001*[#  11]+0.001*[#  19]+0.001*[#  20]+0.001*[#   3]+
          +0.001*[#  30]+
    |psi|^2 = 1.000
==== e(   4) =   -35.31543 eV ==== 
     psi = 0.316*[#  39]+0.312*[#  49]+0.162*[#  50]+0.161*[#  40]+0.013*[#  38]+
          +0.013*[#  48]+0.002*[#  16]+0.003*[#  25]+0.002*[#  10]+0.002*[#  19]+
          +0.001*[#   9]+0.001*[#  36]+0.001*[#  46]+0.001*[#  56]+
    |psi|^2 = 1.000
==== e(   5) =   -35.14715 eV ==== 
     psi = 0.420*[#  38]+0.408*[#  48]+0.044*[#  49]+0.042*[#  39]+0.029*[#  40]+
          +0.028*[#  50]+0.005*[#  20]+0.005*[#  11]+0.002*[#  17]+0.002*[#  26]+
          +0.001*[#   8]+0.001*[#  16]+0.001*[#  25]+0.001*[#  35]+0.001*[#   5]+
          +0.001*[#  32]+
    |psi|^2 = 1.000
==== e(   6) =   -35.13892 eV ==== 
     psi = 0.405*[#  48]+0.392*[#  38]+0.060*[#  39]+0.059*[#  49]+0.027*[#  50]+
          +0.026*[#  40]+0.006*[#  11]+0.006*[#  20]+0.002*[#  17]+0.002*[#  26]+
          +0.001*[#   8]+0.001*[#  35]+
    |psi|^2 = 1.000
==== e(   7) =   -34.94273 eV ==== 
     psi = 0.304*[#  50]+0.301*[#  40]+0.116*[#  39]+0.115*[#  49]+0.073*[#  48]+
          +0.073*[#  38]+0.004*[#  12]+0.004*[#  21]+0.001*[#  45]+0.001*[#  55]+
    |psi|^2 = 1.000
==== e(   8) =   -34.91101 eV ==== 
     psi = 0.347*[#  40]+0.344*[#  50]+0.086*[#  49]+0.085*[#  39]+0.060*[#  38]+
          +0.059*[#  48]+0.003*[#  12]+0.003*[#  21]+0.001*[#  45]+0.001*[#  55]+
    |psi|^2 = 1.000
==== e(   9) =   -33.69882 eV ==== 
     psi = 0.584*[#  23]+0.251*[#  14]+0.089*[#  13]+0.043*[#  22]+0.011*[#  10]+
          +0.006*[#  20]+0.005*[#  19]+0.004*[#  11]+0.003*[#  12]+0.001*[#  21]+
    |psi|^2 = 1.000
==== e(  10) =   -33.69849 eV ==== 
     psi = 0.573*[#  14]+0.257*[#  23]+0.100*[#  22]+0.040*[#  13]+0.011*[#  19]+
          +0.005*[#  11]+0.004*[#  10]+0.004*[#  21]+0.002*[#  12]+0.001*[#  20]+
    |psi|^2 = 1.000
==== e(  11) =   -33.69358 eV ==== 
     psi = 0.464*[#  22]+0.333*[#  13]+0.095*[#  14]+0.060*[#  23]+0.015*[#  19]+
          +0.012*[#  11]+0.011*[#  10]+0.007*[#  20]+0.001*[#  21]+
    |psi|^2 = 1.000
==== e(  12) =   -33.69288 eV ==== 
     psi = 0.452*[#  13]+0.307*[#  22]+0.087*[#  23]+0.067*[#  14]+0.032*[#  20]+
          +0.025*[#  11]+0.015*[#  10]+0.010*[#  19]+0.002*[#  12]+0.002*[#  21]+
    |psi|^2 = 1.000
==== e(  13) =   -33.67771 eV ==== 
     psi = 0.426*[#  20]+0.412*[#  11]+0.045*[#  12]+0.044*[#  21]+0.029*[#  13]+
          +0.028*[#  22]+0.004*[#  38]+0.003*[#  48]+0.002*[#   5]+0.001*[#  32]+
    |psi|^2 = 1.000
==== e(  14) =   -33.67718 eV ==== 
     psi = 0.437*[#  11]+0.422*[#  20]+0.053*[#  21]+0.050*[#  12]+0.010*[#  22]+
          +0.010*[#  13]+0.003*[#  38]+0.003*[#  48]+0.001*[#   5]+0.001*[#  32]+
          +0.001*[#  14]+0.001*[#  23]+
    |psi|^2 = 1.000
==== e(  15) =   -33.65053 eV ==== 
     psi = 0.541*[#  19]+0.411*[#  10]+0.022*[#  22]+0.016*[#  13]+0.002*[#  14]+
          +0.001*[#  39]+0.001*[#  23]+0.001*[#  12]+0.001*[#  49]+
    |psi|^2 = 1.000
==== e(  16) =   -33.65003 eV ==== 
     psi = 0.534*[#  10]+0.405*[#  19]+0.024*[#  13]+0.019*[#  22]+0.007*[#  21]+
          +0.004*[#  12]+0.002*[#  49]+0.001*[#  39]+0.001*[#  23]+
    |psi|^2 = 1.000
==== e(  17) =   -33.64886 eV ==== 
     psi = 0.445*[#  21]+0.434*[#  12]+0.050*[#  11]+0.048*[#  20]+0.004*[#  48]+
          +0.004*[#  38]+0.003*[#  14]+0.003*[#  23]+0.002*[#  13]+0.002*[#  22]+
          +0.001*[#  10]+0.001*[#  39]+0.001*[#  49]+
    |psi|^2 = 1.000
==== e(  18) =   -33.64578 eV ==== 
     psi = 0.449*[#  12]+0.434*[#  21]+0.038*[#  20]+0.037*[#  11]+0.007*[#  19]+
          +0.006*[#  10]+0.005*[#  38]+0.005*[#  48]+0.003*[#  14]+0.003*[#  23]+
          +0.003*[#  13]+0.003*[#  22]+
    |psi|^2 = 1.000
==== e(  19) =   -33.47776 eV ==== 
     psi = 0.860*[#   5]+0.114*[#   2]+0.008*[#  32]+0.005*[#   4]+0.004*[#  20]+
          +0.003*[#  38]+0.002*[#  31]+0.002*[#  40]+
    |psi|^2 = 1.000
==== e(  20) =   -33.47718 eV ==== 
     psi = 0.860*[#  32]+0.114*[#  29]+0.009*[#   5]+0.004*[#  11]+0.003*[#  31]+
          +0.003*[#  48]+0.002*[#   4]+0.002*[#  50]+0.001*[#   2]+
    |psi|^2 = 1.000
==== e(  21) =   -33.47298 eV ==== 
     psi = 0.880*[#   4]+0.065*[#   1]+0.044*[#   3]+0.004*[#   5]+0.003*[#  32]+
          +0.001*[#  31]+
    |psi|^2 = 1.000
==== e(  22) =   -33.47239 eV ==== 
     psi = 0.881*[#  31]+0.064*[#  28]+0.045*[#  30]+0.004*[#  32]+0.003*[#   5]+
    |psi|^2 = 1.000
==== e(  23) =   -33.42775 eV ==== 
     psi = 0.589*[#   2]+0.284*[#  29]+0.078*[#   5]+0.037*[#  32]+0.006*[#  28]+
          +0.003*[#   1]+
    |psi|^2 = 1.000
==== e(  24) =   -33.42582 eV ==== 
     psi = 0.588*[#  29]+0.283*[#   2]+0.079*[#  32]+0.039*[#   5]+0.006*[#   1]+
          +0.003*[#  28]+
    |psi|^2 = 1.000
==== e(  25) =   -33.38422 eV ==== 
     psi = 0.516*[#   3]+0.358*[#   1]+0.104*[#   4]+0.008*[#  30]+0.006*[#  28]+
          +0.002*[#  31]+0.001*[#  29]+0.001*[#  50]+
    |psi|^2 = 1.000
==== e(  26) =   -33.38360 eV ==== 
     psi = 0.518*[#  30]+0.356*[#  28]+0.104*[#  31]+0.009*[#   3]+0.005*[#   1]+
          +0.002*[#   4]+0.001*[#   2]+0.001*[#  40]+
    |psi|^2 = 1.000
==== e(  27) =   -33.37569 eV ==== 
     psi = 0.459*[#   1]+0.349*[#   3]+0.101*[#  28]+0.078*[#  30]+0.006*[#  29]+
          +0.003*[#   4]+0.001*[#   2]+0.001*[#  32]+
    |psi|^2 = 1.000
==== e(  28) =   -33.37469 eV ==== 
     psi = 0.463*[#  28]+0.346*[#  30]+0.103*[#   1]+0.076*[#   3]+0.005*[#   2]+
          +0.003*[#  31]+0.001*[#   5]+
    |psi|^2 = 1.000
==== e(  29) =    -7.93732 eV ==== 
     psi = 0.305*[#  24]+0.300*[#  15]+0.090*[#  33]+0.089*[#   6]+0.047*[#  56]+
          +0.047*[#  46]+0.017*[#  35]+0.017*[#   8]+0.011*[#  42]+0.011*[#  52]+
          +0.008*[#  17]+0.008*[#  26]+0.006*[#  53]+0.006*[#  43]+0.006*[#  44]+
          +0.006*[#  54]+0.005*[#  16]+0.005*[#  25]+0.002*[#  41]+0.002*[#  51]+
          +0.002*[#  39]+0.002*[#  49]+0.002*[#   7]+0.002*[#  34]+
    |psi|^2 = 0.999
==== e(  30) =    -7.75189 eV ==== 
     psi = 0.401*[#  15]+0.397*[#  24]+0.048*[#  52]+0.047*[#  42]+0.015*[#   6]+
          +0.014*[#  33]+0.008*[#   8]+0.008*[#  43]+0.008*[#  35]+0.008*[#  53]+
          +0.007*[#  45]+0.007*[#  55]+0.004*[#  46]+0.004*[#  56]+0.003*[#  16]+
          +0.003*[#  25]+0.002*[#  44]+0.002*[#  54]+0.002*[#  17]+0.002*[#  26]+
          +0.002*[#  41]+0.002*[#  51]+
    |psi|^2 = 0.998
==== e(  31) =    -7.40373 eV ==== 
     psi = 0.319*[#  33]+0.315*[#   6]+0.101*[#  15]+0.101*[#  24]+0.041*[#  52]+
          +0.041*[#  42]+0.021*[#  55]+0.020*[#  45]+0.004*[#  17]+0.004*[#  26]+
          +0.004*[#  46]+0.004*[#  56]+0.003*[#  44]+0.003*[#  54]+0.002*[#   7]+
          +0.002*[#  34]+0.002*[#   8]+0.002*[#  35]+0.002*[#  41]+0.002*[#  51]+
    |psi|^2 = 0.999
==== e(  32) =    -7.24158 eV ==== 
     psi = 0.420*[#   6]+0.415*[#  33]+0.017*[#  15]+0.017*[#  24]+0.012*[#  44]+
          +0.012*[#  54]+0.011*[#  46]+0.012*[#  56]+0.011*[#  45]+0.011*[#  55]+
          +0.010*[#  17]+0.010*[#  26]+0.008*[#  42]+0.008*[#  43]+0.008*[#  53]+
          +0.007*[#  52]+0.002*[#   8]+0.002*[#  35]+0.001*[#   7]+0.001*[#  34]+
          +0.001*[#  39]+0.001*[#  49]+
    |psi|^2 = 0.998
==== e(  33) =    -2.07436 eV ==== 
     psi = 0.218*[#  26]+0.216*[#  17]+0.083*[#  46]+0.082*[#  56]+0.070*[#   8]+
          +0.070*[#  35]+0.034*[#  41]+0.034*[#  51]+0.024*[#  43]+0.024*[#  55]+
          +0.024*[#  45]+0.024*[#  53]+0.010*[#  33]+0.010*[#   6]+0.009*[#  18]+
          +0.009*[#  27]+0.008*[#   9]+0.008*[#  36]+0.005*[#  44]+0.005*[#  54]+
          +0.004*[#  16]+0.004*[#  25]+0.003*[#  15]+0.003*[#  24]+0.002*[#  37]+
          +0.002*[#  42]+0.002*[#  47]+0.002*[#  52]+
    |psi|^2 = 0.994
==== e(  34) =    -1.83190 eV ==== 
     psi = 0.280*[#  17]+0.278*[#  26]+0.048*[#  56]+0.047*[#  46]+0.036*[#  45]+
          +0.036*[#  55]+0.032*[#  51]+0.032*[#  42]+0.032*[#  52]+0.031*[#  41]+
          +0.023*[#  53]+0.023*[#  43]+0.017*[#   6]+0.017*[#  33]+0.014*[#  27]+
          +0.014*[#  18]+0.005*[#  15]+0.005*[#  24]+0.003*[#   7]+0.003*[#  34]+
          +0.002*[#  16]+0.002*[#  25]+0.001*[#  37]+0.001*[#  47]+0.001*[#   9]+
          +0.001*[#  36]+
    |psi|^2 = 0.990
==== e(  35) =    -1.47605 eV ==== 
     psi = 0.237*[#  35]+0.233*[#   8]+0.083*[#  45]+0.083*[#  55]+0.050*[#  53]+
          +0.049*[#  43]+0.049*[#   7]+0.048*[#  34]+0.035*[#  17]+0.034*[#  26]+
          +0.018*[#  27]+0.018*[#  18]+0.011*[#  36]+0.011*[#   9]+0.006*[#  16]+
          +0.006*[#  25]+0.003*[#  41]+0.003*[#  51]+0.002*[#   6]+0.002*[#  33]+
          +0.002*[#  44]+0.002*[#  54]+0.001*[#  40]+0.001*[#  50]+
    |psi|^2 = 0.991
==== e(  36) =    -1.28232 eV ==== 
     psi = 0.297*[#   8]+0.294*[#  35]+0.056*[#  34]+0.055*[#   7]+0.029*[#  43]+
          +0.028*[#  53]+0.021*[#   6]+0.021*[#  33]+0.021*[#  46]+0.021*[#  56]+
          +0.018*[#  15]+0.017*[#  24]+0.012*[#  16]+0.012*[#  25]+0.011*[#  42]+
          +0.011*[#  52]+0.011*[#  44]+0.011*[#  54]+0.007*[#  26]+0.007*[#  17]+
          +0.005*[#   9]+0.005*[#  36]+0.005*[#  55]+0.005*[#  45]+0.002*[#  18]+
          +0.002*[#  27]+0.001*[#  41]+0.001*[#  51]+
    |psi|^2 = 0.992
==== e(  37) =    -0.71445 eV ==== 
     psi = 0.136*[#  16]+0.133*[#  25]+0.088*[#  36]+0.084*[#   9]+0.073*[#  43]+
          +0.071*[#  53]+0.065*[#  55]+0.064*[#  45]+0.050*[#  52]+0.048*[#  42]+
          +0.035*[#  15]+0.033*[#  24]+0.019*[#  46]+0.019*[#  56]+0.015*[#  35]+
          +0.015*[#  44]+0.015*[#  54]+0.014*[#   8]+0.003*[#  41]+0.003*[#  51]+
          +0.001*[#   6]+0.002*[#  18]+0.001*[#  33]+0.001*[#  27]+0.001*[#   7]+
          +0.001*[#  34]+
    |psi|^2 = 0.995
==== e(  38) =    -0.62790 eV ==== 
     psi = 0.132*[#   9]+0.128*[#  36]+0.079*[#  25]+0.075*[#  16]+0.062*[#  42]+
          +0.060*[#  52]+0.058*[#  17]+0.057*[#  26]+0.053*[#  53]+0.051*[#  43]+
          +0.041*[#  24]+0.040*[#  15]+0.030*[#   8]+0.029*[#  35]+0.013*[#  54]+
          +0.012*[#  44]+0.012*[#  56]+0.012*[#  46]+0.011*[#  18]+0.011*[#  27]+
          +0.004*[#  45]+0.004*[#  55]+0.003*[#   7]+0.003*[#  34]+0.001*[#  51]+
          +0.001*[#   6]+0.001*[#  41]+0.001*[#  33]+
    |psi|^2 = 0.988
==== e(  39) =     0.18308 eV ==== 
     psi = 0.160*[#  16]+0.159*[#  25]+0.128*[#  27]+0.127*[#  18]+0.066*[#  36]+
          +0.066*[#   9]+0.031*[#  44]+0.031*[#  54]+0.026*[#  41]+0.026*[#  51]+
          +0.020*[#  42]+0.020*[#  52]+0.020*[#  17]+0.020*[#  26]+0.007*[#   8]+
          +0.007*[#  34]+0.007*[#   7]+0.007*[#  35]+0.007*[#  15]+0.007*[#  24]+
          +0.003*[#  39]+0.003*[#  45]+0.003*[#  49]+0.003*[#  55]+0.002*[#  46]+
          +0.002*[#  56]+
    |psi|^2 = 0.964
==== e(  40) =     0.24916 eV ==== 
     psi = 0.170*[#   9]+0.168*[#  36]+0.057*[#  18]+0.056*[#  27]+0.052*[#  25]+
          +0.052*[#  16]+0.044*[#  42]+0.043*[#  52]+0.041*[#  17]+0.041*[#  26]+
          +0.035*[#  51]+0.035*[#  41]+0.028*[#   7]+0.028*[#  34]+0.027*[#  45]+
          +0.026*[#  55]+0.012*[#  46]+0.012*[#  56]+0.009*[#  54]+0.008*[#  44]+
          +0.007*[#   8]+0.007*[#  35]+0.002*[#  39]+0.002*[#  49]+0.001*[#  38]+
          +0.001*[#  40]+0.001*[#  50]+0.001*[#  48]+
    |psi|^2 = 0.971
==== e(  41) =     0.66940 eV ==== 
     psi = 0.227*[#  27]+0.224*[#  18]+0.050*[#  17]+0.049*[#  26]+0.042*[#  34]+
          +0.042*[#   7]+0.039*[#  16]+0.038*[#  25]+0.036*[#   8]+0.036*[#  35]+
          +0.033*[#  41]+0.032*[#  51]+0.021*[#  36]+0.021*[#  45]+0.020*[#  55]+
          +0.020*[#   9]+0.006*[#  42]+0.006*[#  52]+0.003*[#   6]+0.003*[#  33]+
          +0.003*[#  43]+0.003*[#  53]+0.002*[#  39]+0.002*[#  49]+
    |psi|^2 = 0.959
==== e(  42) =     0.75862 eV ==== 
     psi = 0.105*[#  18]+0.102*[#  52]+0.101*[#  42]+0.101*[#  27]+0.078*[#  55]+
          +0.076*[#  45]+0.067*[#   9]+0.067*[#  36]+0.048*[#  26]+0.046*[#  17]+
          +0.036*[#  44]+0.036*[#  54]+0.018*[#   7]+0.018*[#  34]+0.014*[#  51]+
          +0.014*[#  41]+0.011*[#  25]+0.011*[#  16]+0.010*[#  46]+0.010*[#  56]+
          +0.001*[#   6]+0.001*[#  33]+
    |psi|^2 = 0.978
==== e(  43) =     1.44905 eV ==== 
     psi = 0.201*[#   7]+0.198*[#  34]+0.078*[#  36]+0.077*[#   9]+0.062*[#  16]+
          +0.061*[#  25]+0.037*[#  42]+0.037*[#  52]+0.027*[#  35]+0.026*[#   8]+
          +0.022*[#  44]+0.022*[#  54]+0.021*[#  53]+0.020*[#  43]+0.013*[#   6]+
          +0.012*[#  33]+0.011*[#  27]+0.011*[#  18]+0.010*[#  41]+0.009*[#  51]+
          +0.007*[#  46]+0.007*[#  56]+0.005*[#  15]+0.005*[#  24]+0.003*[#  45]+
          +0.003*[#  55]+0.002*[#  17]+0.002*[#  26]+
    |psi|^2 = 0.992
==== e(  44) =     1.60504 eV ==== 
     psi = 0.122*[#  55]+0.121*[#  45]+0.104*[#  51]+0.103*[#  41]+0.073*[#  34]+
          +0.070*[#   7]+0.057*[#  18]+0.056*[#  27]+0.047*[#  25]+0.045*[#  16]+
          +0.036*[#  43]+0.035*[#  53]+0.026*[#   9]+0.025*[#  36]+0.012*[#   8]+
          +0.012*[#  35]+0.009*[#  54]+0.009*[#  44]+0.007*[#  33]+0.007*[#   6]+
          +0.006*[#  17]+0.007*[#  26]+0.002*[#  46]+0.002*[#  56]+
    |psi|^2 = 0.993
==== e(  45) =     1.82368 eV ==== 
     psi = 0.140*[#  41]+0.139*[#  51]+0.137*[#  45]+0.136*[#  55]+0.054*[#  16]+
          +0.053*[#  25]+0.050*[#  18]+0.049*[#  27]+0.038*[#   7]+0.036*[#  34]+
          +0.026*[#  44]+0.025*[#  54]+0.023*[#  53]+0.023*[#  43]+0.011*[#  52]+
          +0.011*[#  42]+0.009*[#  36]+0.009*[#   9]+0.006*[#  35]+0.005*[#   8]+
          +0.002*[#  15]+0.002*[#  24]+0.001*[#   6]+0.001*[#  17]+0.001*[#  26]+
          +0.001*[#  33]+
    |psi|^2 = 0.994
==== e(  46) =     1.96757 eV ==== 
     psi = 0.209*[#  34]+0.207*[#   7]+0.066*[#   9]+0.065*[#  36]+0.046*[#  25]+
          +0.045*[#  16]+0.038*[#   8]+0.037*[#  35]+0.037*[#  54]+0.036*[#  44]+
          +0.028*[#  51]+0.027*[#  41]+0.015*[#  42]+0.014*[#  52]+0.013*[#  27]+
          +0.013*[#  18]+0.012*[#  26]+0.012*[#  17]+0.012*[#  43]+0.012*[#  33]+
          +0.011*[#   6]+0.011*[#  53]+0.006*[#  46]+0.006*[#  56]+0.002*[#  15]+
          +0.002*[#  24]+0.001*[#  38]+0.001*[#  48]+0.001*[#  55]+
    |psi|^2 = 0.986
==== e(  47) =     4.68709 eV ==== 
     psi = 0.201*[#  44]+0.198*[#  54]+0.138*[#  43]+0.133*[#  53]+0.043*[#   8]+
          +0.042*[#  35]+0.040*[#  51]+0.040*[#  41]+0.015*[#  55]+0.015*[#  45]+
          +0.014*[#  52]+0.013*[#  42]+0.012*[#  18]+0.012*[#  27]+0.010*[#  17]+
          +0.010*[#  26]+0.009*[#   9]+0.009*[#  36]+0.007*[#   7]+0.007*[#  34]+
          +0.005*[#  46]+0.005*[#  56]+
    |psi|^2 = 0.979
==== e(  48) =     4.82275 eV ==== 
     psi = 0.175*[#  53]+0.174*[#  43]+0.098*[#  54]+0.092*[#  52]+0.091*[#  44]+
          +0.091*[#  42]+0.046*[#  35]+0.045*[#   8]+0.043*[#  18]+0.042*[#  27]+
          +0.007*[#  56]+0.007*[#  46]+0.007*[#  45]+0.006*[#  55]+0.005*[#  33]+
          +0.005*[#   6]+0.002*[#  26]+0.001*[#  17]+
    |psi|^2 = 0.942
==== e(  49) =     5.04231 eV ==== 
     psi = 0.110*[#  53]+0.107*[#  43]+0.095*[#  44]+0.091*[#  41]+0.087*[#  54]+
          +0.086*[#  51]+0.055*[#  18]+0.054*[#  27]+0.050*[#  42]+0.050*[#  52]+
          +0.025*[#   7]+0.026*[#  34]+0.021*[#  35]+0.020*[#   8]+0.019*[#  46]+
          +0.018*[#  56]+0.008*[#   6]+0.008*[#  33]+0.007*[#  25]+0.006*[#  16]+
          +0.002*[#  26]+0.001*[#  17]+
    |psi|^2 = 0.951
==== e(  50) =     5.10120 eV ==== 
     psi = 0.187*[#  54]+0.182*[#  44]+0.164*[#  51]+0.159*[#  41]+0.058*[#  27]+
          +0.055*[#  18]+0.041*[#  42]+0.039*[#  52]+0.030*[#  17]+0.030*[#  26]+
          +0.004*[#  56]+0.004*[#  16]+0.004*[#  25]+0.004*[#  46]+0.002*[#   8]+
          +0.001*[#   6]+0.001*[#   7]+0.001*[#  35]+0.001*[#  33]+0.001*[#  34]+
          +0.001*[#  45]+0.001*[#  55]+
    |psi|^2 = 0.970
==== e(  51) =     5.29096 eV ==== 
     psi = 0.113*[#  54]+0.112*[#  44]+0.109*[#  53]+0.108*[#  43]+0.056*[#  17]+
          +0.055*[#  26]+0.046*[#  56]+0.045*[#  46]+0.030*[#   9]+0.030*[#  36]+
          +0.028*[#  35]+0.028*[#   8]+0.024*[#  51]+0.024*[#  41]+0.018*[#  45]+
          +0.018*[#  55]+0.016*[#   7]+0.015*[#  34]+0.011*[#  27]+0.011*[#  18]+
          +0.005*[#   6]+0.005*[#  33]+0.004*[#  16]+0.004*[#  25]+0.003*[#  42]+
          +0.003*[#  52]+
    |psi|^2 = 0.926
==== e(  52) =     5.55902 eV ==== 
     psi = 0.115*[#  41]+0.114*[#  51]+0.069*[#  18]+0.069*[#  27]+0.065*[#  26]+
          +0.064*[#  17]+0.047*[#  44]+0.046*[#  54]+0.034*[#  46]+0.034*[#  56]+
          +0.033*[#  55]+0.033*[#  45]+0.029*[#  43]+0.029*[#  53]+0.027*[#  34]+
          +0.027*[#   7]+0.011*[#   8]+0.011*[#  35]+0.010*[#  52]+0.010*[#  42]+
          +0.008*[#  16]+0.007*[#  25]+0.006*[#  36]+0.006*[#   9]+0.005*[#   6]+
          +0.005*[#  33]+
    |psi|^2 = 0.917
==== e(  53) =     7.13156 eV ==== 
     psi = 0.143*[#  42]+0.139*[#  52]+0.088*[#  25]+0.085*[#  16]+0.057*[#  45]+
          +0.054*[#  55]+0.053*[#   9]+0.051*[#  36]+0.044*[#   7]+0.042*[#  34]+
          +0.020*[#  24]+0.019*[#  15]+0.019*[#  51]+0.018*[#  41]+0.012*[#   6]+
          +0.012*[#  33]+0.007*[#  56]+0.006*[#  46]+0.003*[#  18]+0.003*[#  27]+
          +0.003*[#  44]+0.003*[#  53]+0.003*[#  54]+0.002*[#  43]+0.002*[#   8]+
          +0.002*[#  35]+
    |psi|^2 = 0.891
==== e(  54) =     7.24059 eV ==== 
     psi = 0.112*[#  55]+0.108*[#  45]+0.077*[#  34]+0.075*[#   7]+0.064*[#  52]+
          +0.060*[#  42]+0.057*[#  36]+0.054*[#   9]+0.049*[#  16]+0.046*[#  25]+
          +0.034*[#  41]+0.033*[#  51]+0.013*[#  33]+0.012*[#   6]+0.011*[#  15]+
          +0.011*[#  24]+0.010*[#  43]+0.010*[#  53]+0.008*[#  27]+0.008*[#  18]+
          +0.007*[#  46]+0.007*[#  56]+0.002*[#  44]+0.002*[#  54]+
    |psi|^2 = 0.874
==== e(  55) =     8.18405 eV ==== 
     psi = 0.100*[#  56]+0.099*[#  46]+0.024*[#   9]+0.024*[#  36]+0.010*[#  18]+
          +0.010*[#  27]+0.010*[#  45]+0.010*[#  55]+0.009*[#   8]+0.009*[#  35]+
          +0.008*[#  43]+0.008*[#  53]+0.007*[#   7]+0.007*[#  34]+0.003*[#   6]+
          +0.003*[#  16]+0.003*[#  25]+0.003*[#  33]+0.003*[#  44]+0.003*[#  54]+
          +0.003*[#  17]+0.003*[#  26]+0.003*[#  37]+0.003*[#  47]+
    |psi|^2 = 0.368
==== e(  56) =     8.50070 eV ==== 
     psi = 0.098*[#  46]+0.097*[#  56]+0.028*[#   7]+0.028*[#  34]+0.027*[#  55]+
          +0.027*[#  45]+0.016*[#  16]+0.016*[#  25]+0.011*[#  43]+0.012*[#  53]+
          +0.008*[#   9]+0.008*[#  36]+0.006*[#  41]+0.006*[#  51]+0.005*[#  17]+
          +0.005*[#  26]+0.005*[#  42]+0.006*[#  52]+0.004*[#   6]+0.004*[#  33]+
          +0.003*[#  15]+0.003*[#  24]+0.002*[#  37]+0.002*[#  47]+0.001*[#  18]+
          +0.001*[#  27]+0.001*[#  44]+0.001*[#  54]+
    |psi|^2 = 0.434
==== e(  57) =     8.64981 eV ==== 
     psi = 0.122*[#  56]+0.122*[#  46]+0.062*[#  25]+0.062*[#  16]+0.035*[#  42]+
          +0.035*[#  52]+0.014*[#  15]+0.014*[#  24]+0.012*[#   9]+0.012*[#  36]+
          +0.008*[#  45]+0.008*[#  55]+0.008*[#   7]+0.008*[#  34]+0.007*[#  17]+
          +0.006*[#  26]+0.004*[#  44]+0.004*[#  54]+0.004*[#  43]+0.004*[#  53]+
          +0.003*[#   8]+0.003*[#  35]+0.003*[#  37]+0.003*[#  47]+0.002*[#  33]+
          +0.002*[#  41]+0.002*[#   6]+0.002*[#  51]+
    |psi|^2 = 0.570
==== e(  58) =     9.06018 eV ==== 
     psi = 0.085*[#  46]+0.084*[#  56]+0.023*[#  34]+0.023*[#   7]+0.022*[#  55]+
          +0.022*[#  45]+0.011*[#  43]+0.011*[#  36]+0.011*[#  53]+0.011*[#   9]+
          +0.007*[#   6]+0.007*[#  33]+0.005*[#  18]+0.005*[#  27]+0.004*[#   8]+
          +0.004*[#  35]+0.003*[#  17]+0.003*[#  26]+0.003*[#  16]+0.003*[#  25]+
[...]
          +0.063*[#  27]+0.049*[#  44]+0.048*[#  54]+0.040*[#  46]+0.038*[#  56]+
          +0.038*[#  43]+0.036*[#  53]+0.026*[#  55]+0.026*[#  45]+0.019*[#  34]+
          +0.018*[#   7]+0.017*[#  52]+0.017*[#  42]+0.014*[#   8]+0.014*[#  35]+
          +0.011*[#  36]+0.011*[#   9]+0.009*[#  16]+0.009*[#  25]+0.004*[#  33]+
          +0.003*[#   6]+
    |psi|^2 = 0.915
==== e(  53) =     7.21836 eV ==== 
     psi = 0.122*[#  42]+0.105*[#  52]+0.081*[#  45]+0.079*[#  25]+0.067*[#  16]+
          +0.066*[#  55]+0.064*[#   7]+0.059*[#   9]+0.053*[#  34]+0.049*[#  36]+
          +0.031*[#  51]+0.025*[#  41]+0.018*[#  24]+0.016*[#  15]+0.014*[#   6]+
          +0.012*[#  33]+0.006*[#  56]+0.005*[#  46]+0.004*[#  53]+0.003*[#  43]+
    |psi|^2 = 0.882
==== e(  54) =     7.24968 eV ==== 
     psi = 0.100*[#  55]+0.093*[#  52]+0.085*[#  45]+0.076*[#  42]+0.076*[#  34]+
          +0.064*[#   7]+0.064*[#  16]+0.059*[#  36]+0.053*[#  25]+0.050*[#   9]+
          +0.036*[#  41]+0.030*[#  51]+0.015*[#  15]+0.014*[#  33]+0.012*[#  24]+
          +0.012*[#   6]+0.006*[#  46]+0.006*[#  43]+0.006*[#  56]+0.005*[#  53]+
          +0.003*[#  18]+0.003*[#  27]+
    |psi|^2 = 0.871
==== e(  55) =     8.40183 eV ==== 
     psi = 0.021*[#  56]+0.020*[#  46]+0.012*[#  18]+0.012*[#  27]+0.005*[#   9]+
          +0.005*[#  36]+0.005*[#  52]+0.005*[#  42]+0.005*[#   8]+0.005*[#  35]+
          +0.002*[#  43]+0.002*[#  53]+0.002*[#  45]+0.002*[#   7]+0.002*[#  55]+
          +0.002*[#  34]+0.002*[#   6]+0.002*[#  16]+0.002*[#  33]+0.001*[#  25]+
    |psi|^2 = 0.115
==== e(  56) =     8.54220 eV ==== 
     psi = 0.178*[#  46]+0.177*[#  56]+0.034*[#  45]+0.034*[#  55]+0.033*[#   7]+
          +0.033*[#  34]+0.031*[#  16]+0.030*[#  25]+0.021*[#   9]+0.021*[#  36]+
          +0.017*[#  53]+0.016*[#  43]+0.012*[#  52]+0.011*[#  42]+0.008*[#  17]+
          +0.008*[#  26]+0.007*[#   6]+0.007*[#  33]+0.006*[#  15]+0.006*[#  24]+
          +0.004*[#  37]+0.004*[#  47]+0.004*[#  44]+0.004*[#  54]+0.004*[#  35]+
          +0.004*[#   8]+0.002*[#  41]+0.002*[#  51]+
    |psi|^2 = 0.721
==== e(  57) =     8.56730 eV ==== 
     psi = 0.056*[#  56]+0.053*[#  46]+0.041*[#  25]+0.039*[#  16]+0.030*[#  42]+
          +0.029*[#  52]+0.008*[#  24]+0.008*[#  15]+0.006*[#  45]+0.006*[#  55]+
          +0.006*[#   9]+0.005*[#   7]+0.005*[#  36]+0.005*[#  34]+0.004*[#  17]+
          +0.003*[#  26]+0.003*[#  27]+0.003*[#  18]+0.003*[#  53]+0.003*[#  54]+
          +0.002*[#  43]+0.002*[#  44]+0.001*[#  37]+0.001*[#  47]+
    |psi|^2 = 0.325
==== e(  58) =     8.74822 eV ==== 
     psi = 0.150*[#  46]+0.145*[#  56]+0.028*[#  34]+0.028*[#   7]+0.027*[#  55]+
          +0.027*[#  45]+0.019*[#  36]+0.019*[#   9]+0.015*[#  43]+0.014*[#  53]+
          +0.010*[#  16]+0.010*[#  25]+0.008*[#  33]+0.008*[#   6]+0.008*[#   8]+
          +0.007*[#  35]+0.007*[#  18]+0.007*[#  27]+0.006*[#  26]+0.006*[#  17]+
          +0.003*[#  37]+0.003*[#  47]+0.003*[#  15]+0.003*[#  24]+0.003*[#  44]+
          +0.003*[#  54]+
    |psi|^2 = 0.566
==== e(  59) =     9.45348 eV ==== 
     psi = 0.012*[#  46]+0.012*[#  56]+0.007*[#  41]+0.007*[#  51]+0.005*[#  16]+
          +0.005*[#  25]+0.004*[#  18]+0.004*[#  27]+0.002*[#  45]+0.002*[#  55]+
          +0.001*[#   8]+0.001*[#  35]+
    |psi|^2 = 0.067
==== e(  60) =     9.67288 eV ==== 
     psi = 0.011*[#  25]+0.011*[#  16]+0.009*[#  41]+0.009*[#  51]+0.007*[#  56]+
          +0.007*[#  46]+0.006*[#  45]+0.006*[#  55]+0.003*[#   9]+0.003*[#  36]+
          +0.002*[#  18]+0.002*[#  27]+0.002*[#  15]+0.002*[#  24]+0.002*[#  42]+
          +0.002*[#  52]+
    |psi|^2 = 0.086

 k =   0.5000000000  0.0000000000  0.0000000000
==== e(   1) =   -70.91799 eV ==== 
     psi = 0.981*[#  37]+0.004*[#  26]+0.004*[#  46]+0.003*[#   8]+0.003*[#  55]+
          +0.002*[#  16]+
    |psi|^2 = 1.000
==== e(   2) =   -70.91792 eV ==== 
     psi = 0.981*[#  47]+0.004*[#  17]+0.004*[#  56]+0.003*[#  35]+0.003*[#  45]+
          +0.002*[#  25]+
    |psi|^2 = 1.000
==== e(   3) =   -35.32048 eV ==== 
     psi = 0.678*[#  49]+0.275*[#  40]+0.022*[#  38]+0.005*[#  16]+0.003*[#  10]+
          +0.003*[#  36]+0.002*[#  30]+0.002*[#  20]+0.002*[#  46]+0.001*[#  15]+
          +0.001*[#  26]+
    |psi|^2 = 1.000
==== e(   4) =   -35.32045 eV ==== 
     psi = 0.679*[#  39]+0.275*[#  50]+0.022*[#  48]+0.005*[#  25]+0.003*[#   9]+
          +0.003*[#  19]+0.002*[#   3]+0.002*[#  11]+0.002*[#  56]+0.001*[#  24]+
          +0.001*[#  17]+
    |psi|^2 = 1.000
==== e(   5) =   -35.14332 eV ==== 
     psi = 0.815*[#  38]+0.100*[#  49]+0.056*[#  40]+0.011*[#  20]+0.003*[#  26]+
          +0.002*[#   8]+0.002*[#   5]+0.002*[#  16]+0.002*[#   2]+0.001*[#  23]+
          +0.001*[#  10]+0.001*[#  12]+
    |psi|^2 = 1.000
==== e(   6) =   -35.14320 eV ==== 
     psi = 0.815*[#  48]+0.099*[#  39]+0.056*[#  50]+0.011*[#  11]+0.003*[#  17]+
          +0.002*[#  35]+0.002*[#  32]+0.002*[#  25]+0.001*[#  14]+0.002*[#  29]+
          +0.001*[#  19]+0.001*[#  21]+
    |psi|^2 = 1.000
==== e(   7) =   -34.92653 eV ==== 
     psi = 0.650*[#  50]+0.200*[#  39]+0.131*[#  48]+0.007*[#  21]+0.002*[#  45]+
          +0.001*[#   4]+0.001*[#   7]+0.001*[#  22]+
    |psi|^2 = 1.000
==== e(   8) =   -34.92638 eV ==== 
     psi = 0.650*[#  40]+0.200*[#  49]+0.131*[#  38]+0.007*[#  12]+0.002*[#  55]+
          +0.001*[#  31]+0.001*[#  34]+0.001*[#  13]+
    |psi|^2 = 1.000
==== e(   9) =   -33.69897 eV ==== 
     psi = 0.837*[#  23]+0.132*[#  13]+0.015*[#  10]+0.008*[#  20]+0.006*[#  12]+
    |psi|^2 = 1.000
==== e(  10) =   -33.69884 eV ==== 
     psi = 0.821*[#  14]+0.147*[#  22]+0.016*[#  19]+0.009*[#  11]+0.006*[#  21]+
    |psi|^2 = 1.000
==== e(  11) =   -33.69341 eV ==== 
     psi = 0.771*[#  22]+0.166*[#  14]+0.037*[#  11]+0.023*[#  19]+0.003*[#  21]+
    |psi|^2 = 1.000
==== e(  12) =   -33.69329 eV ==== 
     psi = 0.784*[#  13]+0.150*[#  23]+0.039*[#  20]+0.024*[#  10]+0.002*[#  12]+
    |psi|^2 = 1.000
==== e(  13) =   -33.67768 eV ==== 
     psi = 0.850*[#  20]+0.093*[#  12]+0.040*[#  13]+0.007*[#  38]+0.003*[#   5]+
          +0.002*[#  40]+0.002*[#   2]+0.001*[#  23]+
    |psi|^2 = 1.000
==== e(  14) =   -33.67767 eV ==== 
     psi = 0.850*[#  11]+0.094*[#  21]+0.039*[#  22]+0.007*[#  48]+0.003*[#  32]+
          +0.002*[#  50]+0.001*[#  14]+0.002*[#  29]+
    |psi|^2 = 1.000
==== e(  15) =   -33.64961 eV ==== 
     psi = 0.943*[#  19]+0.039*[#  22]+0.011*[#  21]+0.003*[#  39]+0.002*[#  14]+
    |psi|^2 = 1.000
==== e(  16) =   -33.64954 eV ==== 
     psi = 0.945*[#  10]+0.039*[#  13]+0.009*[#  12]+0.003*[#  49]+0.002*[#  23]+
    |psi|^2 = 1.000
==== e(  17) =   -33.64725 eV ==== 
     psi = 0.877*[#  21]+0.085*[#  11]+0.013*[#  19]+0.010*[#  48]+0.007*[#  14]+
          +0.003*[#  22]+0.002*[#  50]+0.001*[#  39]+
    |psi|^2 = 1.000
==== e(  18) =   -33.64720 eV ==== 
     psi = 0.880*[#  12]+0.084*[#  20]+0.011*[#  10]+0.010*[#  38]+0.007*[#  23]+
          +0.003*[#  13]+0.002*[#  40]+0.002*[#  49]+
    |psi|^2 = 1.000
==== e(  19) =   -33.47784 eV ==== 
     psi = 0.871*[#   5]+0.116*[#   2]+0.004*[#  20]+0.003*[#  38]+0.002*[#  31]+
          +0.002*[#  40]+
    |psi|^2 = 1.000
==== e(  20) =   -33.47727 eV ==== 
     psi = 0.870*[#  32]+0.116*[#  29]+0.004*[#  11]+0.003*[#   4]+0.003*[#  48]+
          +0.002*[#  50]+
    |psi|^2 = 1.000
==== e(  21) =   -33.47303 eV ==== 
     psi = 0.886*[#   4]+0.063*[#   1]+0.044*[#   3]+0.004*[#  32]+
    |psi|^2 = 1.000
==== e(  22) =   -33.47244 eV ==== 
     psi = 0.888*[#  31]+0.063*[#  28]+0.044*[#  30]+0.003*[#   5]+
    |psi|^2 = 1.000
==== e(  23) =   -33.42747 eV ==== 
     psi = 0.872*[#   2]+0.117*[#   5]+0.008*[#  28]+0.001*[#  40]+
    |psi|^2 = 1.000
==== e(  24) =   -33.42679 eV ==== 
     psi = 0.872*[#  29]+0.117*[#  32]+0.008*[#   1]+0.001*[#  50]+
    |psi|^2 = 1.000
==== e(  25) =   -33.38403 eV ==== 
     psi = 0.552*[#   3]+0.340*[#   1]+0.103*[#   4]+0.001*[#  50]+0.001*[#  29]+
    |psi|^2 = 1.000
==== e(  26) =   -33.38343 eV ==== 
     psi = 0.553*[#  30]+0.339*[#  28]+0.103*[#  31]+0.001*[#  40]+
    |psi|^2 = 1.000
==== e(  27) =   -33.37514 eV ==== 
     psi = 0.588*[#   1]+0.399*[#   3]+0.006*[#  29]+0.004*[#   4]+0.001*[#  32]+
    |psi|^2 = 1.000
==== e(  28) =   -33.37450 eV ==== 
     psi = 0.590*[#  28]+0.398*[#  30]+0.006*[#   2]+0.004*[#  31]+0.001*[#   5]+
    |psi|^2 = 1.000
==== e(  29) =    -7.75522 eV ==== 
     psi = 0.801*[#  24]+0.062*[#  42]+0.039*[#  56]+0.023*[#  35]+0.018*[#   6]+
          +0.018*[#  53]+0.010*[#  54]+0.009*[#  25]+0.005*[#  51]+0.005*[#  45]+
          +0.003*[#  39]+0.001*[#   7]+0.001*[#  17]+
    |psi|^2 = 0.998
==== e(  30) =    -7.75363 eV ==== 
     psi = 0.801*[#  15]+0.061*[#  52]+0.039*[#  46]+0.023*[#   8]+0.019*[#  33]+
          +0.018*[#  43]+0.010*[#  44]+0.009*[#  16]+0.005*[#  41]+0.005*[#  55]+
          +0.003*[#  49]+0.001*[#  26]+0.001*[#  34]+
    |psi|^2 = 0.998
==== e(  31) =    -7.35896 eV ==== 
     psi = 0.820*[#  33]+0.050*[#  52]+0.034*[#  55]+0.024*[#  46]+0.022*[#  26]+
          +0.019*[#  15]+0.014*[#  44]+0.006*[#   8]+0.004*[#  34]+0.002*[#  43]+
          +0.001*[#  49]+
    |psi|^2 = 0.999
==== e(  32) =    -7.35812 eV ==== 
     psi = 0.821*[#   6]+0.049*[#  42]+0.034*[#  45]+0.024*[#  56]+0.022*[#  17]+
          +0.019*[#  24]+0.014*[#  54]+0.006*[#  35]+0.004*[#   7]+0.002*[#  53]+
          +0.001*[#  39]+
    |psi|^2 = 0.999
==== e(  33) =    -1.98699 eV ==== 
     psi = 0.499*[#  26]+0.139*[#  46]+0.065*[#   8]+0.064*[#  41]+0.062*[#  55]+
          +0.054*[#  43]+0.036*[#  33]+0.019*[#  18]+0.017*[#  52]+0.012*[#  15]+
          +0.008*[#  16]+0.005*[#  44]+0.004*[#  37]+0.003*[#  36]+
    |psi|^2 = 0.992
==== e(  34) =    -1.98561 eV ==== 
     psi = 0.499*[#  17]+0.139*[#  56]+0.066*[#  35]+0.064*[#  51]+0.062*[#  45]+
          +0.054*[#  53]+0.036*[#   6]+0.019*[#  27]+0.017*[#  42]+0.013*[#  24]+
          +0.008*[#  25]+0.005*[#  54]+0.004*[#  47]+0.003*[#   9]+
    |psi|^2 = 0.992
==== e(  35) =    -1.41566 eV ==== 
     psi = 0.581*[#  35]+0.106*[#   7]+0.091*[#  45]+0.073*[#  53]+0.072*[#  17]+
          +0.017*[#  27]+0.014*[#   6]+0.008*[#  54]+0.008*[#  24]+0.006*[#  51]+
          +0.005*[#  42]+0.004*[#  56]+0.003*[#  50]+0.002*[#  48]+
    |psi|^2 = 0.991
==== e(  36) =    -1.41460 eV ==== 
     psi = 0.582*[#   8]+0.106*[#  34]+0.090*[#  55]+0.073*[#  43]+0.071*[#  26]+
          +0.017*[#  18]+0.014*[#  33]+0.008*[#  44]+0.008*[#  15]+0.006*[#  41]+
          +0.005*[#  52]+0.004*[#  46]+0.003*[#  40]+0.002*[#  38]+
    |psi|^2 = 0.991
==== e(  37) =    -0.72117 eV ==== 
     psi = 0.233*[#  36]+0.232*[#  16]+0.140*[#  52]+0.119*[#  43]+0.084*[#  15]+
          +0.065*[#  55]+0.036*[#  44]+0.034*[#  46]+0.030*[#  26]+0.007*[#  18]+
          +0.005*[#   8]+0.005*[#  41]+0.002*[#  33]+
    |psi|^2 = 0.993
==== e(  38) =    -0.71949 eV ==== 
     psi = 0.232*[#  25]+0.232*[#   9]+0.140*[#  42]+0.119*[#  53]+0.084*[#  24]+
          +0.065*[#  45]+0.036*[#  54]+0.033*[#  56]+0.030*[#  17]+0.007*[#  27]+
          +0.005*[#  35]+0.005*[#  51]+0.002*[#   6]+
    |psi|^2 = 0.993
==== e(  39) =     0.41695 eV ==== 
     psi = 0.311*[#   9]+0.269*[#  25]+0.104*[#  51]+0.074*[#  27]+0.063*[#   7]+
          +0.045*[#  54]+0.030*[#  35]+0.021*[#  45]+0.008*[#  39]+0.007*[#  53]+
          +0.004*[#   6]+0.004*[#  42]+0.003*[#  17]+0.003*[#  56]+0.002*[#  50]+
          +0.002*[#  24]+
    |psi|^2 = 0.950
==== e(  40) =     0.41728 eV ==== 
     psi = 0.310*[#  36]+0.270*[#  16]+0.104*[#  41]+0.074*[#  18]+0.063*[#  34]+
          +0.045*[#  44]+0.030*[#   8]+0.020*[#  55]+0.008*[#  49]+0.007*[#  43]+
          +0.004*[#  33]+0.004*[#  52]+0.003*[#  26]+0.003*[#  46]+0.002*[#  40]+
          +0.002*[#  15]+
    |psi|^2 = 0.950
==== e(  41) =     0.55230 eV ==== 
     psi = 0.471*[#  27]+0.162*[#  42]+0.154*[#  17]+0.096*[#  45]+0.041*[#   9]+
          +0.022*[#  56]+0.014*[#  54]+0.008*[#  35]+0.005*[#   7]+0.003*[#  48]+
          +0.002*[#  24]+0.001*[#  25]+0.001*[#  51]+
    |psi|^2 = 0.982
==== e(  42) =     0.55424 eV ==== 
     psi = 0.470*[#  18]+0.162*[#  52]+0.154*[#  26]+0.096*[#  55]+0.041*[#  36]+
          +0.022*[#  46]+0.014*[#  44]+0.008*[#   8]+0.005*[#  34]+0.003*[#  38]+
          +0.002*[#  15]+0.001*[#  16]+0.001*[#  41]+
    |psi|^2 = 0.982
==== e(  43) =     1.65746 eV ==== 
     psi = 0.531*[#   7]+0.137*[#  45]+0.086*[#  35]+0.079*[#  53]+0.034*[#   6]+
          +0.031*[#   9]+0.025*[#  27]+0.022*[#  17]+0.017*[#  42]+0.014*[#  51]+
          +0.006*[#  56]+0.005*[#  54]+0.002*[#  25]+0.001*[#  24]+
    |psi|^2 = 0.993
==== e(  44) =     1.65928 eV ==== 
     psi = 0.532*[#  34]+0.136*[#  55]+0.086*[#   8]+0.079*[#  43]+0.034*[#  33]+
          +0.032*[#  36]+0.025*[#  18]+0.022*[#  26]+0.017*[#  52]+0.014*[#  41]+
          +0.006*[#  46]+0.005*[#  44]+0.002*[#  16]+0.001*[#  15]+
    |psi|^2 = 0.993
==== e(  45) =     1.72394 eV ==== 
     psi = 0.265*[#  41]+0.194*[#  16]+0.138*[#  55]+0.129*[#  36]+0.087*[#  18]+
          +0.085*[#  44]+0.043*[#  52]+0.018*[#  34]+0.011*[#  46]+0.009*[#  15]+
          +0.008*[#  43]+0.003*[#   8]+0.001*[#  38]+
    |psi|^2 = 0.992
==== e(  46) =     1.72575 eV ==== 
     psi = 0.264*[#  51]+0.194*[#  25]+0.138*[#  45]+0.129*[#   9]+0.086*[#  27]+
          +0.085*[#  54]+0.043*[#  42]+0.018*[#   7]+0.011*[#  56]+0.009*[#  24]+
          +0.008*[#  53]+0.003*[#  35]+0.001*[#  48]+
    |psi|^2 = 0.992
==== e(  47) =     4.83095 eV ==== 
     psi = 0.406*[#  43]+0.231*[#  44]+0.110*[#   8]+0.097*[#  52]+0.060*[#  18]+
          +0.021*[#  55]+0.011*[#  36]+0.010*[#  41]+0.006*[#  33]+0.005*[#  26]+
          +0.004*[#  46]+
    |psi|^2 = 0.960
==== e(  48) =     4.83349 eV ==== 
     psi = 0.403*[#  53]+0.235*[#  54]+0.110*[#  35]+0.095*[#  42]+0.059*[#  27]+
          +0.021*[#  45]+0.011*[#  51]+0.011*[#   9]+0.006*[#   6]+0.005*[#  17]+
          +0.004*[#  56]+
    |psi|^2 = 0.961
==== e(  49) =     5.04780 eV ==== 
     psi = 0.417*[#  44]+0.239*[#  41]+0.078*[#  18]+0.074*[#  52]+0.063*[#  43]+
          +0.038*[#  46]+0.029*[#  34]+0.012*[#  26]+0.010*[#  33]+0.007*[#   8]+
          +0.001*[#  36]+
    |psi|^2 = 0.971
==== e(  50) =     5.04903 eV ==== 
     psi = 0.412*[#  54]+0.238*[#  51]+0.079*[#  27]+0.076*[#  42]+0.065*[#  53]+
          +0.038*[#  56]+0.029*[#   7]+0.012*[#  17]+0.011*[#   6]+0.007*[#  35]+
          +0.001*[#   9]+
    |psi|^2 = 0.970
==== e(  51) =     5.38649 eV ==== 
     psi = 0.180*[#  51]+0.143*[#  17]+0.111*[#  27]+0.102*[#  54]+0.094*[#  53]+
          +0.081*[#  56]+0.047*[#  45]+0.036*[#  42]+0.033*[#  35]+0.032*[#   7]+
          +0.029*[#   9]+0.018*[#  25]+0.006*[#   6]+0.001*[#  24]+0.001*[#  47]+
    |psi|^2 = 0.916
==== e(  52) =     5.38816 eV ==== 
     psi = 0.180*[#  41]+0.143*[#  26]+0.111*[#  18]+0.102*[#  44]+0.094*[#  43]+
          +0.082*[#  46]+0.046*[#  55]+0.036*[#  52]+0.034*[#   8]+0.032*[#  34]+
          +0.028*[#  36]+0.018*[#  16]+0.006*[#  33]+0.001*[#  15]+0.001*[#  37]+
    |psi|^2 = 0.916
==== e(  53) =     7.23876 eV ==== 
     psi = 0.197*[#  42]+0.166*[#  45]+0.131*[#  25]+0.130*[#   7]+0.109*[#   9]+
          +0.062*[#  51]+0.031*[#  24]+0.026*[#   6]+0.011*[#  56]+0.008*[#  53]+
          +0.002*[#  27]+0.001*[#  35]+
    |psi|^2 = 0.876
==== e(  54) =     7.24161 eV ==== 
     psi = 0.198*[#  52]+0.166*[#  55]+0.131*[#  16]+0.130*[#  34]+0.109*[#  36]+
          +0.062*[#  41]+0.031*[#  15]+0.026*[#  33]+0.011*[#  46]+0.008*[#  43]+
          +0.002*[#  18]+
    |psi|^2 = 0.876
==== e(  55) =     8.49831 eV ==== 
     psi = 0.037*[#  52]+0.036*[#  16]+0.016*[#  18]+0.011*[#  46]+0.006*[#  15]+
          +0.002*[#  55]+0.002*[#  26]+0.001*[#   8]+0.001*[#  34]+
    |psi|^2 = 0.114
==== e(  56) =     8.49980 eV ==== 
     psi = 0.037*[#  42]+0.036*[#  25]+0.016*[#  27]+0.010*[#  56]+0.006*[#  24]+
          +0.002*[#  45]+0.001*[#  17]+0.001*[#  35]+0.001*[#   7]+
    |psi|^2 = 0.113
==== e(  57) =     8.61846 eV ==== 
     psi = 0.388*[#  56]+0.068*[#  45]+0.067*[#   7]+0.050*[#   9]+0.046*[#  25]+
          +0.036*[#  53]+0.017*[#   6]+0.016*[#  17]+0.015*[#  35]+0.011*[#  24]+
          +0.010*[#  42]+0.009*[#  47]+0.008*[#  54]+0.006*[#  27]+0.002*[#  51]+
    |psi|^2 = 0.749
==== e(  58) =     8.62130 eV ==== 
     psi = 0.388*[#  46]+0.068*[#  55]+0.067*[#  34]+0.050*[#  36]+0.045*[#  16]+
          +0.036*[#  43]+0.017*[#  33]+0.016*[#  26]+0.015*[#   8]+0.010*[#  15]+
          +0.010*[#  52]+0.009*[#  37]+0.008*[#  44]+0.006*[#  18]+0.002*[#  41]+
    |psi|^2 = 0.748
==== e(  59) =     9.57339 eV ==== 
     psi = 0.023*[#  46]+0.016*[#  16]+0.015*[#  41]+0.007*[#  18]+0.006*[#  55]+
          +0.003*[#  36]+0.003*[#  15]+0.002*[#   8]+0.001*[#  52]+
    |psi|^2 = 0.078
==== e(  60) =     9.57452 eV ==== 
     psi = 0.023*[#  56]+0.016*[#  25]+0.015*[#  51]+0.007*[#  27]+0.006*[#  45]+
          +0.003*[#   9]+0.003*[#  24]+0.002*[#  35]+0.002*[#  42]+
    |psi|^2 = 0.079

Lowdin Charges: 

           1           1   1.8411742287457149        4.1765432132268350        9.9984381663567827     
     Atom #   1: total charge =  16.0162, s =  1.8412, 
     Atom #   1: total charge =  16.0162, p =  4.1765, pz=  1.5410, px=  1.2744, py=  1.3611, 
     Atom #   1: total charge =  16.0162, d =  9.9984, dz2=  1.9999, dxz=  1.9996, dyz=  1.9996, dx2-y2=  1.9997, dxy=  1.9996, 
           1           1   1.8385038848514037        4.1274916054068163        9.9977199335622213     
     Atom #   2: total charge =  15.9637, s =  1.8385, 
     Atom #   2: total charge =  15.9637, p =  4.1275, pz=  1.4588, px=  1.3097, py=  1.3591, 
     Atom #   2: total charge =  15.9637, d =  9.9977, dz2=  1.9997, dxz=  1.9991, dyz=  1.9993, dx2-y2=  1.9997, dxy=  1.9999, 
           1           1   1.8382707754099779        4.1271848708583354        9.9977150394697514     
     Atom #   3: total charge =  15.9632, s =  1.8383, 
     Atom #   3: total charge =  15.9632, p =  4.1272, pz=  1.4590, px=  1.3095, py=  1.3587, 
     Atom #   3: total charge =  15.9632, d =  9.9977, dz2=  1.9997, dxz=  1.9991, dyz=  1.9993, dx2-y2=  1.9997, dxy=  1.9999, 
           1           1   1.8408395793643830        4.1762498654071258        9.9984339056818197     
     Atom #   4: total charge =  16.0155, s =  1.8408, 
     Atom #   4: total charge =  16.0155, p =  4.1762, pz=  1.5412, px=  1.2740, py=  1.3610, 
     Atom #   4: total charge =  16.0155, d =  9.9984, dz2=  1.9999, dxz=  1.9996, dyz=  1.9996, dx2-y2=  1.9997, dxy=  1.9996, 
           1           1   2.6917879303831431        5.9964417915627122        5.1306005726989214     
     Atom #   5: total charge =  13.8188, s =  2.6918, 
     Atom #   5: total charge =  13.8188, p =  5.9964, pz=  1.9993, px=  1.9980, py=  1.9991, 
     Atom #   5: total charge =  13.8188, d =  5.1306, dz2=  1.1838, dxz=  1.0376, dyz=  0.8572, dx2-y2=  0.9320, dxy=  1.1200, 
           1           1   2.6917525810553462        5.9964401329843966        5.1310905465517891     
     Atom #   6: total charge =  13.8193, s =  2.6918, 
     Atom #   6: total charge =  13.8193, p =  5.9964, pz=  1.9993, px=  1.9980, py=  1.9991, 
     Atom #   6: total charge =  13.8193, d =  5.1311, dz2=  1.1836, dxz=  1.0375, dyz=  0.8577, dx2-y2=  0.9321, dxy=  1.1202, 
     Spilling Parameter:   0.0044

     PROJWFC      :   1m23.50s CPU   1m15.89s WALL


   This run was terminated on:  19:19:16  14Aug2024            

=------------------------------------------------------------------------------=
   JOB DONE.
=------------------------------------------------------------------------------=
