
     Program PWSCF v.6.4.1 starts on 13Aug2024 at 13:41:12 

     This program is part of the open-source Quantum ESPRESSO suite
     for quantum simulation of materials; please cite
         "P. Giannozzi et al., J. Phys.:Condens. Matter 21 395502 (2009);
         "P. Giannozzi et al., J. Phys.:Condens. Matter 29 465901 (2017);
          URL http://www.quantum-espresso.org", 
     in publications or presentations arising from this work. More details at
     http://www.quantum-espresso.org/quote

     Parallel version (MPI & OpenMP), running on       4 processor cores
     Number of MPI processes:                 1
     Threads/MPI process:                     4

     MPI processes distributed on     1 nodes
     Waiting for input...
     Reading input from standard input

     Current dimensions of program PWSCF are:
     Max number of different atomic species (ntypx) = 10
     Max number of k-points (npk) =  40000
     Max angular momentum in pseudopotentials (lmaxx) =  3

     IMPORTANT: XC functional enforced from input :
     Exchange-correlation      = PBE ( 1  4  3  4 0 0)
     Any further DFT definition will be discarded
     Please, verify this is what you really want


     Subspace diagonalization in iterative solution of the eigenvalue problem:
     a serial algorithm will be used


     G-vector sticks info
     --------------------
     sticks:   dense  smooth     PW     G-vecs:    dense   smooth      PW
     Sum        3159    1667    471               436185   167117   25375



     bravais-lattice index     =            8
     lattice parameter (alat)  =       6.6101  a.u.
     unit-cell volume          =    2308.8680 (a.u.)^3
     number of atoms/cell      =            6
     number of atomic types    =            2
     number of electrons       =        92.00
     number of Kohn-Sham states=           55
     kinetic-energy cutoff     =      66.0000  Ry
     charge density cutoff     =     500.0000  Ry
     convergence threshold     =      1.0E-09
     mixing beta               =       0.7000
     number of iterations used =            8  plain     mixing
     Exchange-correlation      = PBE ( 1  4  3  4 0 0)

     celldm(1)=   6.610149  celldm(2)=   1.812001  celldm(3)=   4.411711
     celldm(4)=   0.000000  celldm(5)=   0.000000  celldm(6)=   0.000000

     crystal axes: (cart. coord. in units of alat)
               a(1) = (   1.000000   0.000000   0.000000 )  
               a(2) = (   0.000000   1.812001   0.000000 )  
               a(3) = (   0.000000   0.000000   4.411711 )  

     reciprocal axes: (cart. coord. in units 2 pi/alat)
               b(1) = (  1.000000  0.000000  0.000000 )  
               b(2) = (  0.000000  0.551876  0.000000 )  
               b(3) = (  0.000000  0.000000  0.226669 )  


     PseudoPot. # 1 for Te read from file:
     .\Te_ONCV_PBE_sr.upf
     MD5 check sum: e924e79875967e0d58ac6509efbf72c7
     Pseudo is Norm-conserving + core correction, Zval = 16.0
     Generated using ONCVPSP code by D. R. Hamann
     Using radial grid of 1294 points,  6 beta functions with: 
                l(1) =   0
                l(2) =   0
                l(3) =   1
                l(4) =   1
                l(5) =   2
                l(6) =   2

     PseudoPot. # 2 for W  read from file:
     .\W_ONCV_PBE_sr.upf
     MD5 check sum: ed1f8c5deb4c334b28f6f49839c97859
     Pseudo is Norm-conserving + core correction, Zval = 14.0
     Generated using ONCVPSP code by D. R. Hamann
     Using radial grid of 1396 points,  7 beta functions with: 
                l(1) =   0
                l(2) =   0
                l(3) =   1
                l(4) =   1
                l(5) =   2
                l(6) =   2
                l(7) =   3

     atomic species   valence    mass     pseudopotential
        Te            16.00   127.60000     Te( 1.00)
        W             14.00   183.84000     W ( 1.00)

     No symmetry found


                                    s                        frac. trans.

      isym =  1     identity                                     

 cryst.   s( 1) = (     1          0          0      )
                  (     0          1          0      )
                  (     0          0          1      )

 cart.    s( 1) = (  1.0000000  0.0000000  0.0000000 )
                  (  0.0000000  1.0000000  0.0000000 )
                  (  0.0000000  0.0000000  1.0000000 )


     point group C_1 (1)    
     there are  1 classes
     the character table:

       E    
A      1.00

     the symmetry operations in each class and the name of the first element:

     E        1
          identity                                               

   Cartesian axes

     site n.     atom                  positions (alat units)
         1           Te  tau(   1) = (   0.0000001   0.3758597   1.8171391  )
         2           Te  tau(   2) = (   0.5000002   1.2674192   1.6396615  )
         3           Te  tau(   3) = (  -0.0000000   1.5573761   2.8386118  )
         4           Te  tau(   4) = (   0.5000003   0.6370455   2.6609266  )
         5           W   tau(   5) = (   0.5000001   1.7346064   2.2680210  )
         6           W   tau(   6) = (   0.0000001   1.0904003   2.2105366  )

   Crystallographic axes

     site n.     atom                  positions (cryst. coord.)
         1           Te  tau(   1) = (  0.0000001  0.2074280  0.4118899  )
         2           Te  tau(   2) = (  0.5000002  0.6994584  0.3716611  )
         3           Te  tau(   3) = ( -0.0000000  0.8594787  0.6434265  )
         4           Te  tau(   4) = (  0.5000003  0.3515702  0.6031507  )
         5           W   tau(   5) = (  0.5000001  0.9572879  0.5140910  )
         6           W   tau(   6) = (  0.0000001  0.6017659  0.5010611  )

     number of k points=    34  gaussian smearing, width (Ry)=  0.0100
                       cart. coord. in units 2pi/alat
        k(    1) = (   0.0000000   0.0000000   0.0000000), wk =   0.0312500
        k(    2) = (   0.0000000   0.0689845   0.0000000), wk =   0.0625000
        k(    3) = (   0.0000000   0.1379690   0.0000000), wk =   0.0625000
        k(    4) = (   0.0000000   0.2069536   0.0000000), wk =   0.0625000
        k(    5) = (   0.0000000  -0.2759381   0.0000000), wk =   0.0312500
        k(    6) = (   0.1250000   0.0000000   0.0000000), wk =   0.0625000
        k(    7) = (   0.1250000   0.0689845   0.0000000), wk =   0.0625000
        k(    8) = (   0.1250000   0.1379690   0.0000000), wk =   0.0625000
        k(    9) = (   0.1250000   0.2069536   0.0000000), wk =   0.0625000
        k(   10) = (   0.1250000  -0.2759381   0.0000000), wk =   0.0625000
        k(   11) = (   0.1250000  -0.2069536   0.0000000), wk =   0.0625000
        k(   12) = (   0.1250000  -0.1379690   0.0000000), wk =   0.0625000
        k(   13) = (   0.1250000  -0.0689845   0.0000000), wk =   0.0625000
        k(   14) = (   0.2500000   0.0000000   0.0000000), wk =   0.0625000
        k(   15) = (   0.2500000   0.0689845   0.0000000), wk =   0.0625000
        k(   16) = (   0.2500000   0.1379690   0.0000000), wk =   0.0625000
        k(   17) = (   0.2500000   0.2069536   0.0000000), wk =   0.0625000
        k(   18) = (   0.2500000  -0.2759381   0.0000000), wk =   0.0625000
        k(   19) = (   0.2500000  -0.2069536   0.0000000), wk =   0.0625000
        k(   20) = (   0.2500000  -0.1379690   0.0000000), wk =   0.0625000
        k(   21) = (   0.2500000  -0.0689845   0.0000000), wk =   0.0625000
        k(   22) = (   0.3750000   0.0000000   0.0000000), wk =   0.0625000
        k(   23) = (   0.3750000   0.0689845   0.0000000), wk =   0.0625000
        k(   24) = (   0.3750000   0.1379690   0.0000000), wk =   0.0625000
        k(   25) = (   0.3750000   0.2069536   0.0000000), wk =   0.0625000
        k(   26) = (   0.3750000  -0.2759381   0.0000000), wk =   0.0625000
        k(   27) = (   0.3750000  -0.2069536   0.0000000), wk =   0.0625000
        k(   28) = (   0.3750000  -0.1379690   0.0000000), wk =   0.0625000
        k(   29) = (   0.3750000  -0.0689845   0.0000000), wk =   0.0625000
        k(   30) = (  -0.5000000   0.0000000   0.0000000), wk =   0.0312500
        k(   31) = (  -0.5000000   0.0689845   0.0000000), wk =   0.0625000
        k(   32) = (  -0.5000000   0.1379690   0.0000000), wk =   0.0625000
        k(   33) = (  -0.5000000   0.2069536   0.0000000), wk =   0.0625000
        k(   34) = (  -0.5000000  -0.2759381   0.0000000), wk =   0.0312500

                       cryst. coord.
        k(    1) = (   0.0000000   0.0000000   0.0000000), wk =   0.0312500
        k(    2) = (   0.0000000   0.1250000   0.0000000), wk =   0.0625000
        k(    3) = (   0.0000000   0.2500000   0.0000000), wk =   0.0625000
        k(    4) = (   0.0000000   0.3750000   0.0000000), wk =   0.0625000
        k(    5) = (   0.0000000  -0.5000000   0.0000000), wk =   0.0312500
        k(    6) = (   0.1250000   0.0000000   0.0000000), wk =   0.0625000
        k(    7) = (   0.1250000   0.1250000   0.0000000), wk =   0.0625000
        k(    8) = (   0.1250000   0.2500000   0.0000000), wk =   0.0625000
        k(    9) = (   0.1250000   0.3750000   0.0000000), wk =   0.0625000
        k(   10) = (   0.1250000  -0.5000000   0.0000000), wk =   0.0625000
        k(   11) = (   0.1250000  -0.3750000   0.0000000), wk =   0.0625000
        k(   12) = (   0.1250000  -0.2500000   0.0000000), wk =   0.0625000
        k(   13) = (   0.1250000  -0.1250000   0.0000000), wk =   0.0625000
        k(   14) = (   0.2500000   0.0000000   0.0000000), wk =   0.0625000
        k(   15) = (   0.2500000   0.1250000   0.0000000), wk =   0.0625000
        k(   16) = (   0.2500000   0.2500000   0.0000000), wk =   0.0625000
        k(   17) = (   0.2500000   0.3750000   0.0000000), wk =   0.0625000
        k(   18) = (   0.2500000  -0.5000000   0.0000000), wk =   0.0625000
        k(   19) = (   0.2500000  -0.3750000   0.0000000), wk =   0.0625000
        k(   20) = (   0.2500000  -0.2500000   0.0000000), wk =   0.0625000
        k(   21) = (   0.2500000  -0.1250000   0.0000000), wk =   0.0625000
        k(   22) = (   0.3750000   0.0000000   0.0000000), wk =   0.0625000
        k(   23) = (   0.3750000   0.1250000   0.0000000), wk =   0.0625000
        k(   24) = (   0.3750000   0.2500000   0.0000000), wk =   0.0625000
        k(   25) = (   0.3750000   0.3750000   0.0000000), wk =   0.0625000
        k(   26) = (   0.3750000  -0.5000000   0.0000000), wk =   0.0625000
        k(   27) = (   0.3750000  -0.3750000   0.0000000), wk =   0.0625000
        k(   28) = (   0.3750000  -0.2500000   0.0000000), wk =   0.0625000
        k(   29) = (   0.3750000  -0.1250000   0.0000000), wk =   0.0625000
        k(   30) = (  -0.5000000   0.0000000   0.0000000), wk =   0.0312500
        k(   31) = (  -0.5000000   0.1250000   0.0000000), wk =   0.0625000
        k(   32) = (  -0.5000000   0.2500000   0.0000000), wk =   0.0625000
        k(   33) = (  -0.5000000   0.3750000   0.0000000), wk =   0.0625000
        k(   34) = (  -0.5000000  -0.5000000   0.0000000), wk =   0.0312500

     Dense  grid:   436185 G-vectors     FFT dimensions: (  48,  90, 216)

     Smooth grid:   167117 G-vectors     FFT dimensions: (  36,  64, 160)

     Dynamical RAM for                 wfc:      17.55 MB

     Dynamical RAM for     wfc (w. buffer):     614.08 MB

     Dynamical RAM for           str. fact:      13.31 MB

     Dynamical RAM for           local pot:       0.00 MB

     Dynamical RAM for          nlocal pot:      38.92 MB

     Dynamical RAM for                qrad:       7.05 MB

     Dynamical RAM for          rho,v,vnew:      41.32 MB

     Dynamical RAM for               rhoin:      13.77 MB

     Dynamical RAM for            rho*nmix:     106.49 MB

     Dynamical RAM for           G-vectors:      26.23 MB

     Dynamical RAM for          h,s,v(r/c):       2.22 MB

     Dynamical RAM for          <psi|beta>:       0.10 MB

     Dynamical RAM for                 psi:      70.18 MB

     Dynamical RAM for                hpsi:      70.18 MB

     Dynamical RAM for      wfcinit/wfcrot:      35.80 MB

     Estimated static dynamical RAM per process >     916.74 MB

     Estimated max dynamical RAM per process >       1.03 GB

     Initial potential from superposition of free atoms

     starting charge   91.99815, renormalised to   92.00000

     negative rho (up, down):  2.091E-06 0.000E+00
     Starting wfcs are   56 randomized atomic wfcs

     total cpu time spent up to now is       64.9 secs

     Self-consistent Calculation

     iteration #  1     ecut=    66.00 Ry     beta= 0.70
     Davidson diagonalization with overlap
     ethr =  1.00E-02,  avg # of iterations =  3.1

     Threshold (ethr) on eigenvalues was too large:
     Diagonalizing with lowered threshold

     Davidson diagonalization with overlap
     ethr =  5.08E-04,  avg # of iterations =  1.1

     total cpu time spent up to now is      249.2 secs

     total energy              =   -1147.67481293 Ry
     Harris-Foulkes estimate   =   -1148.04000999 Ry
     estimated scf accuracy    <       0.47435771 Ry

     iteration #  2     ecut=    66.00 Ry     beta= 0.70
     Davidson diagonalization with overlap
     ethr =  5.16E-04,  avg # of iterations =  6.5

     total cpu time spent up to now is      403.7 secs

     total energy              =   -1147.14810670 Ry
     Harris-Foulkes estimate   =   -1148.82391867 Ry
     estimated scf accuracy    <       6.84369556 Ry

     iteration #  3     ecut=    66.00 Ry     beta= 0.70
     Davidson diagonalization with overlap
     ethr =  5.16E-04,  avg # of iterations =  4.9

     total cpu time spent up to now is      508.8 secs

     total energy              =   -1147.95693005 Ry
     Harris-Foulkes estimate   =   -1147.96606783 Ry
     estimated scf accuracy    <       0.03011716 Ry

     iteration #  4     ecut=    66.00 Ry     beta= 0.70
     Davidson diagonalization with overlap
     ethr =  3.27E-05,  avg # of iterations =  3.4

     total cpu time spent up to now is      589.6 secs

     total energy              =   -1147.95989801 Ry
     Harris-Foulkes estimate   =   -1147.96400800 Ry
     estimated scf accuracy    <       0.00889959 Ry

     iteration #  5     ecut=    66.00 Ry     beta= 0.70
     Davidson diagonalization with overlap
     ethr =  9.67E-06,  avg # of iterations =  2.1

     total cpu time spent up to now is      668.8 secs

     total energy              =   -1147.96176451 Ry
     Harris-Foulkes estimate   =   -1147.96222746 Ry
     estimated scf accuracy    <       0.00102456 Ry

     iteration #  6     ecut=    66.00 Ry     beta= 0.70
     Davidson diagonalization with overlap
     ethr =  1.11E-06,  avg # of iterations =  3.4

     total cpu time spent up to now is      750.5 secs

     total energy              =   -1147.96184153 Ry
     Harris-Foulkes estimate   =   -1147.96213364 Ry
     estimated scf accuracy    <       0.00078973 Ry

     iteration #  7     ecut=    66.00 Ry     beta= 0.70
     Davidson diagonalization with overlap
     ethr =  8.58E-07,  avg # of iterations =  3.2

     total cpu time spent up to now is      825.1 secs

     total energy              =   -1147.96193597 Ry
     Harris-Foulkes estimate   =   -1147.96214448 Ry
     estimated scf accuracy    <       0.00097444 Ry

     iteration #  8     ecut=    66.00 Ry     beta= 0.70
     Davidson diagonalization with overlap
     ethr =  8.58E-07,  avg # of iterations =  2.2

     total cpu time spent up to now is      889.1 secs

     total energy              =   -1147.96203502 Ry
     Harris-Foulkes estimate   =   -1147.96203769 Ry
     estimated scf accuracy    <       0.00000539 Ry

     iteration #  9     ecut=    66.00 Ry     beta= 0.70
     Davidson diagonalization with overlap
     ethr =  5.86E-09,  avg # of iterations =  3.0

     total cpu time spent up to now is      967.5 secs

     total energy              =   -1147.96203690 Ry
     Harris-Foulkes estimate   =   -1147.96203728 Ry
     estimated scf accuracy    <       0.00000075 Ry

     iteration # 10     ecut=    66.00 Ry     beta= 0.70
     Davidson diagonalization with overlap
     ethr =  8.19E-10,  avg # of iterations =  2.3

     total cpu time spent up to now is     1038.3 secs

     total energy              =   -1147.96203688 Ry
     Harris-Foulkes estimate   =   -1147.96203730 Ry
     estimated scf accuracy    <       0.00000166 Ry

     iteration # 11     ecut=    66.00 Ry     beta= 0.70
     Davidson diagonalization with overlap
     ethr =  8.19E-10,  avg # of iterations =  2.0

     total cpu time spent up to now is     1106.1 secs

     total energy              =   -1147.96203710 Ry
     Harris-Foulkes estimate   =   -1147.96203713 Ry
     estimated scf accuracy    <       0.00000011 Ry

     iteration # 12     ecut=    66.00 Ry     beta= 0.70
     Davidson diagonalization with overlap
     ethr =  1.15E-10,  avg # of iterations =  2.0

     total cpu time spent up to now is     1171.3 secs

     total energy              =   -1147.96203711 Ry
     Harris-Foulkes estimate   =   -1147.96203712 Ry
     estimated scf accuracy    <          6.6E-09 Ry

     iteration # 13     ecut=    66.00 Ry     beta= 0.70
     Davidson diagonalization with overlap
     ethr =  7.13E-12,  avg # of iterations =  2.1

     total cpu time spent up to now is     1244.8 secs

     total energy              =   -1147.96203711 Ry
     Harris-Foulkes estimate   =   -1147.96203712 Ry
     estimated scf accuracy    <          6.9E-09 Ry

     iteration # 14     ecut=    66.00 Ry     beta= 0.70
     Davidson diagonalization with overlap
     ethr =  7.13E-12,  avg # of iterations =  2.0

     total cpu time spent up to now is     1310.2 secs

     End of self-consistent calculation

          k = 0.0000 0.0000 0.0000 ( 20977 PWs)   bands (ev):

   -70.9366 -70.9028 -35.2437 -35.2422 -35.1682 -35.0680 -35.0607 -34.8520
   -33.7258 -33.7209 -33.7086 -33.7061 -33.6941 -33.6877 -33.6743 -33.6673
   -33.6663 -33.6547 -33.5051 -33.5044 -33.4904 -33.4890 -33.4397 -33.4308
   -33.3982 -33.3949 -33.3944 -33.3856  -9.8235  -8.7095  -7.8695  -7.6375
    -2.6967  -2.3167  -1.4935  -0.8393   0.4072   0.7654   0.8884   1.1942
     1.6863   1.8789   2.3306   2.7193   2.9833   3.3824   4.3317   4.5580
     4.9383   5.3632   5.8011   6.5932   6.7656   6.7881   7.0024

     occupation numbers 
     1.0000   1.0000   1.0000   1.0000   1.0000   1.0000   1.0000   1.0000
     1.0000   1.0000   1.0000   1.0000   1.0000   1.0000   1.0000   1.0000
     1.0000   1.0000   1.0000   1.0000   1.0000   1.0000   1.0000   1.0000
     1.0000   1.0000   1.0000   1.0000   1.0000   1.0000   1.0000   1.0000
     1.0000   1.0000   1.0000   1.0000   1.0000   1.0000   1.0000   1.0000
     1.0000   1.0000   1.0000   1.0000   0.9998   0.2571   0.0000   0.0000
     0.0000   0.0000   0.0000   0.0000   0.0000   0.0000   0.0000

          k = 0.0000 0.0690 0.0000 ( 20963 PWs)   bands (ev):

   -70.9366 -70.9028 -35.2441 -35.2422 -35.1683 -35.0679 -35.0606 -34.8514
   -33.7257 -33.7208 -33.7086 -33.7061 -33.6941 -33.6878 -33.6742 -33.6673
   -33.6663 -33.6546 -33.5050 -33.5043 -33.4905 -33.4891 -33.4397 -33.4309
   -33.3982 -33.3952 -33.3944 -33.3857  -9.7714  -8.6909  -7.9916  -7.6484
    -2.7123  -2.1140  -1.4490  -0.7867   0.2875   0.7831   0.9304   1.2083
     1.4219   2.0790   2.2463   2.6888   2.9910   3.2799   4.2114   4.4811
     4.9077   5.4209   5.8949   6.5265   6.7753   6.8701   6.9781

     occupation numbers 
     1.0000   1.0000   1.0000   1.0000   1.0000   1.0000   1.0000   1.0000
     1.0000   1.0000   1.0000   1.0000   1.0000   1.0000   1.0000   1.0000
     1.0000   1.0000   1.0000   1.0000   1.0000   1.0000   1.0000   1.0000
     1.0000   1.0000   1.0000   1.0000   1.0000   1.0000   1.0000   1.0000
     1.0000   1.0000   1.0000   1.0000   1.0000   1.0000   1.0000   1.0000
     1.0000   1.0000   1.0000   1.0000   0.9997   0.6602   0.0000   0.0000
     0.0000   0.0000   0.0000   0.0000   0.0000   0.0000   0.0000

          k = 0.0000 0.1380 0.0000 ( 20947 PWs)   bands (ev):

   -70.9366 -70.9028 -35.2452 -35.2423 -35.1684 -35.0675 -35.0605 -34.8498
   -33.7256 -33.7207 -33.7085 -33.7061 -33.6941 -33.6878 -33.6741 -33.6672
   -33.6664 -33.6545 -33.5050 -33.5043 -33.4904 -33.4893 -33.4396 -33.4309
   -33.3982 -33.3957 -33.3944 -33.3859  -9.6187  -8.6531  -8.2597  -7.7145
    -2.6422  -1.7745  -1.2392  -0.7532   0.1177   0.8334   1.0382   1.1413
     1.2498   2.0362   2.1860   2.6117   2.8308   3.0346   3.9647   4.3271
     4.8489   5.5141   6.1180   6.4776   6.7545   7.0334   7.0648

     occupation numbers 
     1.0000   1.0000   1.0000   1.0000   1.0000   1.0000   1.0000   1.0000
     1.0000   1.0000   1.0000   1.0000   1.0000   1.0000   1.0000   1.0000
     1.0000   1.0000   1.0000   1.0000   1.0000   1.0000   1.0000   1.0000
     1.0000   1.0000   1.0000   1.0000   1.0000   1.0000   1.0000   1.0000
     1.0000   1.0000   1.0000   1.0000   1.0000   1.0000   1.0000   1.0000
     1.0000   1.0000   1.0000   1.0000   1.0000   0.9985   0.0000   0.0000
     0.0000   0.0000   0.0000   0.0000   0.0000   0.0000   0.0000

          k = 0.0000 0.2070 0.0000 ( 20957 PWs)   bands (ev):

   -70.9366 -70.9028 -35.2462 -35.2425 -35.1685 -35.0671 -35.0603 -34.8483
   -33.7255 -33.7207 -33.7085 -33.7062 -33.6940 -33.6878 -33.6741 -33.6671
   -33.6664 -33.6546 -33.5051 -33.5042 -33.4904 -33.4895 -33.4396 -33.4310
   -33.3983 -33.3965 -33.3945 -33.3861  -9.3764  -8.7499  -8.4453  -7.8101
    -2.4835  -1.6074  -1.0973  -0.5882   0.1755   0.8935   0.9310   1.1621
     1.2343   1.8613   2.0356   2.5439   2.5663   2.7647   3.7718   4.2078
     4.8128   5.5170   6.3552   6.4088   6.7086   7.2147   7.3044

     occupation numbers 
     1.0000   1.0000   1.0000   1.0000   1.0000   1.0000   1.0000   1.0000
     1.0000   1.0000   1.0000   1.0000   1.0000   1.0000   1.0000   1.0000
     1.0000   1.0000   1.0000   1.0000   1.0000   1.0000   1.0000   1.0000
     1.0000   1.0000   1.0000   1.0000   1.0000   1.0000   1.0000   1.0000
     1.0000   1.0000   1.0000   1.0000   1.0000   1.0000   1.0000   1.0000
     1.0000   1.0000   1.0000   1.0000   1.0000   1.0000   0.0000   0.0000
     0.0000   0.0000   0.0000   0.0000   0.0000   0.0000   0.0000

          k = 0.0000-0.2759 0.0000 ( 20894 PWs)   bands (ev):

   -70.9366 -70.9028 -35.2467 -35.2425 -35.1685 -35.0670 -35.0603 -34.8477
   -33.7253 -33.7206 -33.7084 -33.7061 -33.6940 -33.6878 -33.6740 -33.6670
   -33.6663 -33.6545 -33.5051 -33.5040 -33.4902 -33.4896 -33.4395 -33.4310
   -33.3981 -33.3967 -33.3943 -33.3862  -9.0830  -9.0497  -8.4445  -7.8587
    -2.3826  -1.5664  -1.2189  -0.2518   0.2486   0.8439   0.9216   1.0645
     1.2210   1.8809   1.9000   2.4438   2.5633   2.5967   3.6952   4.1663
     4.7999   5.5270   6.3177   6.4825   6.6586   7.2654   7.5316

     occupation numbers 
     1.0000   1.0000   1.0000   1.0000   1.0000   1.0000   1.0000   1.0000
     1.0000   1.0000   1.0000   1.0000   1.0000   1.0000   1.0000   1.0000
     1.0000   1.0000   1.0000   1.0000   1.0000   1.0000   1.0000   1.0000
     1.0000   1.0000   1.0000   1.0000   1.0000   1.0000   1.0000   1.0000
     1.0000   1.0000   1.0000   1.0000   1.0000   1.0000   1.0000   1.0000
     1.0000   1.0000   1.0000   1.0000   1.0000   1.0000   0.0000   0.0000
     0.0000   0.0000   0.0000   0.0000   0.0000   0.0000   0.0000

          k = 0.1250 0.0000 0.0000 ( 20957 PWs)   bands (ev):

   -70.9351 -70.9038 -35.2574 -35.2507 -35.1651 -35.0917 -35.0366 -34.8547
   -33.7227 -33.7188 -33.7090 -33.7066 -33.6933 -33.6882 -33.6727 -33.6668
   -33.6660 -33.6548 -33.5019 -33.5013 -33.4907 -33.4894 -33.4401 -33.4320
   -33.3981 -33.3951 -33.3937 -33.3858  -9.6430  -8.6009  -7.7929  -7.5264
    -2.5180  -2.1034  -1.4399  -0.7632   0.3125   0.4401   0.6298   0.8604
     1.6587   1.8329   2.1967   2.3732   2.9354   3.2024   3.2599   4.8304
     5.2367   5.4517   5.6982   5.8049   6.2112   6.7502   7.2489

     occupation numbers 
     1.0000   1.0000   1.0000   1.0000   1.0000   1.0000   1.0000   1.0000
     1.0000   1.0000   1.0000   1.0000   1.0000   1.0000   1.0000   1.0000
     1.0000   1.0000   1.0000   1.0000   1.0000   1.0000   1.0000   1.0000
     1.0000   1.0000   1.0000   1.0000   1.0000   1.0000   1.0000   1.0000
     1.0000   1.0000   1.0000   1.0000   1.0000   1.0000   1.0000   1.0000
     1.0000   1.0000   1.0000   1.0000   1.0000   0.8886   0.7326   0.0000
     0.0000   0.0000   0.0000   0.0000   0.0000   0.0000   0.0000

          k = 0.1250 0.0690 0.0000 ( 20948 PWs)   bands (ev):

   -70.9351 -70.9038 -35.2574 -35.2510 -35.1652 -35.0915 -35.0367 -34.8542
   -33.7227 -33.7187 -33.7090 -33.7066 -33.6933 -33.6882 -33.6726 -33.6669
   -33.6660 -33.6548 -33.5019 -33.5013 -33.4906 -33.4894 -33.4401 -33.4320
   -33.3981 -33.3953 -33.3937 -33.3858  -9.5926  -8.5822  -7.9007  -7.5461
    -2.5179  -1.9153  -1.4099  -0.7068   0.1857   0.4152   0.6416   0.9408
     1.5249   1.8116   2.1386   2.4189   2.8202   3.0415   3.4912   4.7261
     5.1420   5.5242   5.7262   5.8640   6.1521   6.7806   7.2557

     occupation numbers 
     1.0000   1.0000   1.0000   1.0000   1.0000   1.0000   1.0000   1.0000
     1.0000   1.0000   1.0000   1.0000   1.0000   1.0000   1.0000   1.0000
     1.0000   1.0000   1.0000   1.0000   1.0000   1.0000   1.0000   1.0000
     1.0000   1.0000   1.0000   1.0000   1.0000   1.0000   1.0000   1.0000
     1.0000   1.0000   1.0000   1.0000   1.0000   1.0000   1.0000   1.0000
     1.0000   1.0000   1.0000   1.0000   1.0000   0.9981   0.0373   0.0000
     0.0000   0.0000   0.0000   0.0000   0.0000   0.0000   0.0000

          k = 0.1250 0.1380 0.0000 ( 20933 PWs)   bands (ev):

   -70.9351 -70.9038 -35.2574 -35.2517 -35.1653 -35.0911 -35.0369 -34.8529
   -33.7227 -33.7188 -33.7089 -33.7066 -33.6933 -33.6882 -33.6726 -33.6668
   -33.6659 -33.6548 -33.5020 -33.5013 -33.4906 -33.4895 -33.4400 -33.4320
   -33.3981 -33.3957 -33.3937 -33.3859  -9.4446  -8.5410  -8.1533  -7.6178
    -2.4368  -1.5769  -1.2352  -0.6553  -0.0609   0.3816   0.7716   1.0318
     1.2598   1.7765   2.0465   2.3229   2.6833   2.8462   3.6693   4.4896
     5.0254   5.5269   5.7855   5.9958   6.0911   6.9016   7.3702

     occupation numbers 
     1.0000   1.0000   1.0000   1.0000   1.0000   1.0000   1.0000   1.0000
     1.0000   1.0000   1.0000   1.0000   1.0000   1.0000   1.0000   1.0000
     1.0000   1.0000   1.0000   1.0000   1.0000   1.0000   1.0000   1.0000
     1.0000   1.0000   1.0000   1.0000   1.0000   1.0000   1.0000   1.0000
     1.0000   1.0000   1.0000   1.0000   1.0000   1.0000   1.0000   1.0000
     1.0000   1.0000   1.0000   1.0000   1.0000   1.0000   0.0001   0.0000
     0.0000   0.0000   0.0000   0.0000   0.0000   0.0000   0.0000

          k = 0.1250 0.2070 0.0000 ( 20931 PWs)   bands (ev):

   -70.9350 -70.9038 -35.2574 -35.2525 -35.1654 -35.0907 -35.0371 -34.8517
   -33.7227 -33.7188 -33.7089 -33.7066 -33.6933 -33.6882 -33.6726 -33.6667
   -33.6659 -33.6548 -33.5021 -33.5013 -33.4906 -33.4896 -33.4400 -33.4320
   -33.3980 -33.3962 -33.3937 -33.3861  -9.2102  -8.6103  -8.3521  -7.7121
    -2.2762  -1.4357  -0.9637  -0.6182  -0.0738   0.3020   0.7270   1.0438
     1.2820   1.7502   1.9447   2.0960   2.5018   2.7092   3.7055   4.2481
     4.9665   5.4053   5.9386   6.0772   6.1817   6.8335   7.6589

     occupation numbers 
     1.0000   1.0000   1.0000   1.0000   1.0000   1.0000   1.0000   1.0000
     1.0000   1.0000   1.0000   1.0000   1.0000   1.0000   1.0000   1.0000
     1.0000   1.0000   1.0000   1.0000   1.0000   1.0000   1.0000   1.0000
     1.0000   1.0000   1.0000   1.0000   1.0000   1.0000   1.0000   1.0000
     1.0000   1.0000   1.0000   1.0000   1.0000   1.0000   1.0000   1.0000
     1.0000   1.0000   1.0000   1.0000   1.0000   1.0000   0.0000   0.0000
     0.0000   0.0000   0.0000   0.0000   0.0000   0.0000   0.0000

          k = 0.1250-0.2759 0.0000 ( 20908 PWs)   bands (ev):

   -70.9350 -70.9038 -35.2573 -35.2529 -35.1655 -35.0906 -35.0372 -34.8512
   -33.7225 -33.7187 -33.7089 -33.7066 -33.6932 -33.6881 -33.6725 -33.6667
   -33.6659 -33.6547 -33.5020 -33.5012 -33.4907 -33.4896 -33.4400 -33.4319
   -33.3980 -33.3964 -33.3937 -33.3861  -8.9302  -8.8910  -8.3558  -7.7587
    -2.1754  -1.4026  -1.0740  -0.1525  -0.1454   0.1817   0.5404   1.0723
     1.4941   1.6336   1.9031   2.0367   2.3716   2.6313   3.7232   4.1307
     4.9552   5.3505   5.9950   6.1325   6.2732   6.7037   7.9101

     occupation numbers 
     1.0000   1.0000   1.0000   1.0000   1.0000   1.0000   1.0000   1.0000
     1.0000   1.0000   1.0000   1.0000   1.0000   1.0000   1.0000   1.0000
     1.0000   1.0000   1.0000   1.0000   1.0000   1.0000   1.0000   1.0000
     1.0000   1.0000   1.0000   1.0000   1.0000   1.0000   1.0000   1.0000
     1.0000   1.0000   1.0000   1.0000   1.0000   1.0000   1.0000   1.0000
     1.0000   1.0000   1.0000   1.0000   1.0000   1.0000   0.0000   0.0000
     0.0000   0.0000   0.0000   0.0000   0.0000   0.0000   0.0000

          k = 0.1250-0.2070 0.0000 ( 20931 PWs)   bands (ev):

   -70.9350 -70.9038 -35.2574 -35.2525 -35.1654 -35.0907 -35.0371 -34.8517
   -33.7227 -33.7188 -33.7089 -33.7066 -33.6933 -33.6882 -33.6726 -33.6667
   -33.6659 -33.6548 -33.5021 -33.5013 -33.4906 -33.4896 -33.4400 -33.4320
   -33.3980 -33.3962 -33.3937 -33.3861  -9.2102  -8.6103  -8.3521  -7.7121
    -2.2762  -1.4357  -0.9637  -0.6182  -0.0738   0.3020   0.7270   1.0438
     1.2820   1.7502   1.9447   2.0960   2.5018   2.7092   3.7055   4.2481
     4.9665   5.4053   5.9386   6.0772   6.1817   6.8335   7.6589

     occupation numbers 
     1.0000   1.0000   1.0000   1.0000   1.0000   1.0000   1.0000   1.0000
     1.0000   1.0000   1.0000   1.0000   1.0000   1.0000   1.0000   1.0000
     1.0000   1.0000   1.0000   1.0000   1.0000   1.0000   1.0000   1.0000
     1.0000   1.0000   1.0000   1.0000   1.0000   1.0000   1.0000   1.0000
     1.0000   1.0000   1.0000   1.0000   1.0000   1.0000   1.0000   1.0000
     1.0000   1.0000   1.0000   1.0000   1.0000   1.0000   0.0000   0.0000
     0.0000   0.0000   0.0000   0.0000   0.0000   0.0000   0.0000

          k = 0.1250-0.1380 0.0000 ( 20933 PWs)   bands (ev):

   -70.9351 -70.9038 -35.2574 -35.2517 -35.1653 -35.0911 -35.0369 -34.8529
   -33.7227 -33.7188 -33.7089 -33.7066 -33.6933 -33.6882 -33.6726 -33.6668
   -33.6659 -33.6548 -33.5020 -33.5013 -33.4906 -33.4895 -33.4400 -33.4320
   -33.3981 -33.3957 -33.3937 -33.3859  -9.4446  -8.5410  -8.1533  -7.6178
    -2.4368  -1.5769  -1.2352  -0.6553  -0.0609   0.3816   0.7716   1.0318
     1.2598   1.7765   2.0465   2.3229   2.6833   2.8462   3.6693   4.4896
     5.0254   5.5269   5.7855   5.9958   6.0911   6.9016   7.3702

     occupation numbers 
     1.0000   1.0000   1.0000   1.0000   1.0000   1.0000   1.0000   1.0000
     1.0000   1.0000   1.0000   1.0000   1.0000   1.0000   1.0000   1.0000
     1.0000   1.0000   1.0000   1.0000   1.0000   1.0000   1.0000   1.0000
     1.0000   1.0000   1.0000   1.0000   1.0000   1.0000   1.0000   1.0000
     1.0000   1.0000   1.0000   1.0000   1.0000   1.0000   1.0000   1.0000
     1.0000   1.0000   1.0000   1.0000   1.0000   1.0000   0.0001   0.0000
     0.0000   0.0000   0.0000   0.0000   0.0000   0.0000   0.0000

          k = 0.1250-0.0690 0.0000 ( 20948 PWs)   bands (ev):

   -70.9351 -70.9038 -35.2574 -35.2510 -35.1652 -35.0915 -35.0367 -34.8542
   -33.7227 -33.7187 -33.7090 -33.7066 -33.6933 -33.6882 -33.6726 -33.6669
   -33.6660 -33.6548 -33.5019 -33.5013 -33.4906 -33.4894 -33.4401 -33.4320
   -33.3981 -33.3953 -33.3937 -33.3858  -9.5926  -8.5822  -7.9007  -7.5461
    -2.5179  -1.9153  -1.4099  -0.7068   0.1857   0.4152   0.6416   0.9408
     1.5249   1.8116   2.1386   2.4189   2.8202   3.0415   3.4912   4.7261
     5.1420   5.5242   5.7262   5.8640   6.1521   6.7806   7.2557

     occupation numbers 
     1.0000   1.0000   1.0000   1.0000   1.0000   1.0000   1.0000   1.0000
     1.0000   1.0000   1.0000   1.0000   1.0000   1.0000   1.0000   1.0000
     1.0000   1.0000   1.0000   1.0000   1.0000   1.0000   1.0000   1.0000
     1.0000   1.0000   1.0000   1.0000   1.0000   1.0000   1.0000   1.0000
     1.0000   1.0000   1.0000   1.0000   1.0000   1.0000   1.0000   1.0000
     1.0000   1.0000   1.0000   1.0000   1.0000   0.9981   0.0373   0.0000
     0.0000   0.0000   0.0000   0.0000   0.0000   0.0000   0.0000

          k = 0.2500 0.0000 0.0000 ( 20919 PWs)   bands (ev):

   -70.9307 -70.9068 -35.2893 -35.2725 -35.1592 -35.1149 -35.0055 -34.8662
   -33.7156 -33.7142 -33.7099 -33.7077 -33.6915 -33.6891 -33.6688 -33.6655
   -33.6650 -33.6556 -33.4948 -33.4942 -33.4907 -33.4900 -33.4407 -33.4348
   -33.3977 -33.3956 -33.3919 -33.3861  -9.1288  -8.3042  -7.6062  -7.2655
    -2.0865  -1.5753  -1.3781  -0.7583  -0.5683   0.0785   0.2388   0.3677
     1.1450   1.4859   1.5425   1.8615   2.4038   2.7862   3.5213   4.6483
     4.9745   5.4604   5.5509   5.9262   6.3572   6.8133   7.6479

     occupation numbers 
     1.0000   1.0000   1.0000   1.0000   1.0000   1.0000   1.0000   1.0000
     1.0000   1.0000   1.0000   1.0000   1.0000   1.0000   1.0000   1.0000
     1.0000   1.0000   1.0000   1.0000   1.0000   1.0000   1.0000   1.0000
     1.0000   1.0000   1.0000   1.0000   1.0000   1.0000   1.0000   1.0000
     1.0000   1.0000   1.0000   1.0000   1.0000   1.0000   1.0000   1.0000
     1.0000   1.0000   1.0000   1.0000   1.0000   1.0000   0.0181   0.0000
     0.0000   0.0000   0.0000   0.0000   0.0000   0.0000   0.0000

          k = 0.2500 0.0690 0.0000 ( 20920 PWs)   bands (ev):

   -70.9307 -70.9068 -35.2893 -35.2726 -35.1593 -35.1148 -35.0058 -34.8659
   -33.7156 -33.7142 -33.7099 -33.7077 -33.6915 -33.6892 -33.6688 -33.6656
   -33.6649 -33.6555 -33.4948 -33.4942 -33.4908 -33.4899 -33.4407 -33.4348
   -33.3977 -33.3957 -33.3919 -33.3861  -9.0840  -8.2866  -7.6816  -7.2952
    -2.0634  -1.5149  -1.3493  -0.6873  -0.5722   0.0982   0.1463   0.3921
     0.9229   1.5222   1.7029   1.8386   2.4323   2.6799   3.6071   4.6645
     4.9826   5.3955   5.5628   5.9619   6.3156   6.7165   7.6913

     occupation numbers 
     1.0000   1.0000   1.0000   1.0000   1.0000   1.0000   1.0000   1.0000
     1.0000   1.0000   1.0000   1.0000   1.0000   1.0000   1.0000   1.0000
     1.0000   1.0000   1.0000   1.0000   1.0000   1.0000   1.0000   1.0000
     1.0000   1.0000   1.0000   1.0000   1.0000   1.0000   1.0000   1.0000
     1.0000   1.0000   1.0000   1.0000   1.0000   1.0000   1.0000   1.0000
     1.0000   1.0000   1.0000   1.0000   1.0000   1.0000   0.0014   0.0000
     0.0000   0.0000   0.0000   0.0000   0.0000   0.0000   0.0000

          k = 0.2500 0.1380 0.0000 ( 20914 PWs)   bands (ev):

   -70.9307 -70.9068 -35.2891 -35.2728 -35.1594 -35.1145 -35.0065 -34.8653
   -33.7156 -33.7143 -33.7099 -33.7077 -33.6915 -33.6891 -33.6689 -33.6656
   -33.6648 -33.6555 -33.4948 -33.4942 -33.4910 -33.4898 -33.4408 -33.4347
   -33.3976 -33.3958 -33.3919 -33.3861  -8.9527  -8.2421  -7.8808  -7.3720
    -1.9875  -1.3823  -1.2263  -0.7699  -0.3553  -0.1588   0.2012   0.3257
     0.8290   1.5072   1.8061   1.9642   2.3346   2.5021   3.8009   4.6207
     5.0302   5.3162   5.6116   5.8552   6.1340   6.8264   7.8511

     occupation numbers 
     1.0000   1.0000   1.0000   1.0000   1.0000   1.0000   1.0000   1.0000
     1.0000   1.0000   1.0000   1.0000   1.0000   1.0000   1.0000   1.0000
     1.0000   1.0000   1.0000   1.0000   1.0000   1.0000   1.0000   1.0000
     1.0000   1.0000   1.0000   1.0000   1.0000   1.0000   1.0000   1.0000
     1.0000   1.0000   1.0000   1.0000   1.0000   1.0000   1.0000   1.0000
     1.0000   1.0000   1.0000   1.0000   1.0000   1.0000   0.0000   0.0000
     0.0000   0.0000   0.0000   0.0000   0.0000   0.0000   0.0000

          k = 0.2500 0.2070 0.0000 ( 20887 PWs)   bands (ev):

   -70.9307 -70.9068 -35.2889 -35.2730 -35.1595 -35.1143 -35.0071 -34.8647
   -33.7156 -33.7142 -33.7098 -33.7076 -33.6916 -33.6891 -33.6689 -33.6656
   -33.6647 -33.6555 -33.4948 -33.4941 -33.4911 -33.4897 -33.4409 -33.4347
   -33.3975 -33.3959 -33.3918 -33.3861  -8.7466  -8.2375  -8.1017  -7.4583
    -1.8748  -1.2415  -1.0406  -0.8584  -0.4698  -0.3103   0.2252   0.3502
     0.9938   1.5103   1.8050   2.0520   2.1022   2.4787   3.8503   4.5433
     5.0599   5.2926   5.5884   5.8443   5.9943   6.9792   8.0879

     occupation numbers 
     1.0000   1.0000   1.0000   1.0000   1.0000   1.0000   1.0000   1.0000
     1.0000   1.0000   1.0000   1.0000   1.0000   1.0000   1.0000   1.0000
     1.0000   1.0000   1.0000   1.0000   1.0000   1.0000   1.0000   1.0000
     1.0000   1.0000   1.0000   1.0000   1.0000   1.0000   1.0000   1.0000
     1.0000   1.0000   1.0000   1.0000   1.0000   1.0000   1.0000   1.0000
     1.0000   1.0000   1.0000   1.0000   1.0000   1.0000   0.0000   0.0000
     0.0000   0.0000   0.0000   0.0000   0.0000   0.0000   0.0000

          k = 0.2500-0.2759 0.0000 ( 20888 PWs)   bands (ev):

   -70.9307 -70.9068 -35.2888 -35.2731 -35.1595 -35.1142 -35.0074 -34.8645
   -33.7156 -33.7143 -33.7098 -33.7075 -33.6916 -33.6891 -33.6689 -33.6656
   -33.6647 -33.6556 -33.4947 -33.4940 -33.4912 -33.4896 -33.4409 -33.4347
   -33.3974 -33.3960 -33.3919 -33.3862  -8.5212  -8.4434  -8.1202  -7.4983
    -1.8103  -1.1882  -0.9375  -0.8140  -0.6764  -0.4088   0.2943   0.3904
     1.1040   1.5166   1.7954   1.9300   2.1334   2.4815   3.8003   4.5156
     5.0477   5.3322   5.5139   5.8926   5.9982   6.9865   8.2344

     occupation numbers 
     1.0000   1.0000   1.0000   1.0000   1.0000   1.0000   1.0000   1.0000
     1.0000   1.0000   1.0000   1.0000   1.0000   1.0000   1.0000   1.0000
     1.0000   1.0000   1.0000   1.0000   1.0000   1.0000   1.0000   1.0000
     1.0000   1.0000   1.0000   1.0000   1.0000   1.0000   1.0000   1.0000
     1.0000   1.0000   1.0000   1.0000   1.0000   1.0000   1.0000   1.0000
     1.0000   1.0000   1.0000   1.0000   1.0000   1.0000   0.0000   0.0000
     0.0000   0.0000   0.0000   0.0000   0.0000   0.0000   0.0000

          k = 0.2500-0.2070 0.0000 ( 20887 PWs)   bands (ev):

   -70.9307 -70.9068 -35.2889 -35.2730 -35.1595 -35.1143 -35.0071 -34.8647
   -33.7156 -33.7142 -33.7098 -33.7076 -33.6916 -33.6891 -33.6689 -33.6656
   -33.6647 -33.6555 -33.4948 -33.4941 -33.4911 -33.4897 -33.4409 -33.4347
   -33.3975 -33.3959 -33.3918 -33.3861  -8.7466  -8.2375  -8.1017  -7.4583
    -1.8748  -1.2415  -1.0406  -0.8584  -0.4698  -0.3103   0.2252   0.3502
     0.9938   1.5103   1.8050   2.0520   2.1022   2.4787   3.8503   4.5433
     5.0599   5.2926   5.5884   5.8443   5.9943   6.9792   8.0879

     occupation numbers 
     1.0000   1.0000   1.0000   1.0000   1.0000   1.0000   1.0000   1.0000
     1.0000   1.0000   1.0000   1.0000   1.0000   1.0000   1.0000   1.0000
     1.0000   1.0000   1.0000   1.0000   1.0000   1.0000   1.0000   1.0000
     1.0000   1.0000   1.0000   1.0000   1.0000   1.0000   1.0000   1.0000
     1.0000   1.0000   1.0000   1.0000   1.0000   1.0000   1.0000   1.0000
     1.0000   1.0000   1.0000   1.0000   1.0000   1.0000   0.0000   0.0000
     0.0000   0.0000   0.0000   0.0000   0.0000   0.0000   0.0000

          k = 0.2500-0.1380 0.0000 ( 20914 PWs)   bands (ev):

   -70.9307 -70.9068 -35.2891 -35.2728 -35.1594 -35.1145 -35.0065 -34.8653
   -33.7156 -33.7143 -33.7099 -33.7077 -33.6915 -33.6891 -33.6689 -33.6656
   -33.6648 -33.6555 -33.4948 -33.4942 -33.4910 -33.4898 -33.4408 -33.4347
   -33.3976 -33.3958 -33.3919 -33.3861  -8.9527  -8.2421  -7.8808  -7.3720
    -1.9875  -1.3823  -1.2263  -0.7699  -0.3553  -0.1588   0.2012   0.3257
     0.8290   1.5072   1.8061   1.9642   2.3346   2.5021   3.8009   4.6207
     5.0302   5.3162   5.6116   5.8552   6.1340   6.8264   7.8511

     occupation numbers 
     1.0000   1.0000   1.0000   1.0000   1.0000   1.0000   1.0000   1.0000
     1.0000   1.0000   1.0000   1.0000   1.0000   1.0000   1.0000   1.0000
     1.0000   1.0000   1.0000   1.0000   1.0000   1.0000   1.0000   1.0000
     1.0000   1.0000   1.0000   1.0000   1.0000   1.0000   1.0000   1.0000
     1.0000   1.0000   1.0000   1.0000   1.0000   1.0000   1.0000   1.0000
     1.0000   1.0000   1.0000   1.0000   1.0000   1.0000   0.0000   0.0000
     0.0000   0.0000   0.0000   0.0000   0.0000   0.0000   0.0000

          k = 0.2500-0.0690 0.0000 ( 20920 PWs)   bands (ev):

   -70.9307 -70.9068 -35.2893 -35.2726 -35.1593 -35.1148 -35.0058 -34.8659
   -33.7156 -33.7142 -33.7099 -33.7077 -33.6915 -33.6892 -33.6688 -33.6656
   -33.6649 -33.6555 -33.4948 -33.4942 -33.4908 -33.4899 -33.4407 -33.4348
   -33.3977 -33.3957 -33.3919 -33.3861  -9.0840  -8.2866  -7.6816  -7.2952
    -2.0634  -1.5149  -1.3493  -0.6873  -0.5722   0.0982   0.1463   0.3921
     0.9229   1.5222   1.7029   1.8386   2.4323   2.6799   3.6071   4.6645
     4.9826   5.3955   5.5628   5.9619   6.3156   6.7165   7.6913

     occupation numbers 
     1.0000   1.0000   1.0000   1.0000   1.0000   1.0000   1.0000   1.0000
     1.0000   1.0000   1.0000   1.0000   1.0000   1.0000   1.0000   1.0000
     1.0000   1.0000   1.0000   1.0000   1.0000   1.0000   1.0000   1.0000
     1.0000   1.0000   1.0000   1.0000   1.0000   1.0000   1.0000   1.0000
     1.0000   1.0000   1.0000   1.0000   1.0000   1.0000   1.0000   1.0000
     1.0000   1.0000   1.0000   1.0000   1.0000   1.0000   0.0014   0.0000
     0.0000   0.0000   0.0000   0.0000   0.0000   0.0000   0.0000

          k = 0.3750 0.0000 0.0000 ( 20853 PWs)   bands (ev):

   -70.9245 -70.9116 -35.3156 -35.3018 -35.1523 -35.1314 -34.9674 -34.8905
   -33.7118 -33.7115 -33.7077 -33.7065 -33.6904 -33.6900 -33.6644 -33.6637
   -33.6635 -33.6572 -33.4911 -33.4906 -33.4870 -33.4865 -33.4409 -33.4378
   -33.3974 -33.3963 -33.3898 -33.3868  -8.3828  -7.9231  -7.4403  -7.1227
    -1.9741  -1.6395  -1.5014  -1.0528  -0.4488  -0.4353  -0.0913  -0.0072
     0.6347   1.0702   1.3978   1.5260   2.0471   2.3619   4.2541   4.6854
     4.9865   5.2331   5.4981   5.7215   6.8000   7.1178   7.8271

     occupation numbers 
     1.0000   1.0000   1.0000   1.0000   1.0000   1.0000   1.0000   1.0000
     1.0000   1.0000   1.0000   1.0000   1.0000   1.0000   1.0000   1.0000
     1.0000   1.0000   1.0000   1.0000   1.0000   1.0000   1.0000   1.0000
     1.0000   1.0000   1.0000   1.0000   1.0000   1.0000   1.0000   1.0000
     1.0000   1.0000   1.0000   1.0000   1.0000   1.0000   1.0000   1.0000
     1.0000   1.0000   1.0000   1.0000   1.0000   1.0000   0.0000   0.0000
     0.0000   0.0000   0.0000   0.0000   0.0000   0.0000   0.0000

          k = 0.3750 0.0690 0.0000 ( 20889 PWs)   bands (ev):

   -70.9245 -70.9116 -35.3154 -35.3017 -35.1523 -35.1314 -34.9678 -34.8905
   -33.7119 -33.7116 -33.7077 -33.7065 -33.6904 -33.6900 -33.6645 -33.6638
   -33.6635 -33.6574 -33.4912 -33.4905 -33.4870 -33.4866 -33.4411 -33.4378
   -33.3973 -33.3962 -33.3898 -33.3868  -8.3519  -7.9103  -7.4813  -7.1332
    -2.1845  -1.5284  -1.4693  -1.1284  -0.5939  -0.2219  -0.0674   0.0341
     0.6809   1.1524   1.4446   1.5519   1.9977   2.3502   4.2379   4.7702
     4.9687   5.2869   5.5824   5.7044   6.7963   6.8841   7.8770

     occupation numbers 
     1.0000   1.0000   1.0000   1.0000   1.0000   1.0000   1.0000   1.0000
     1.0000   1.0000   1.0000   1.0000   1.0000   1.0000   1.0000   1.0000
     1.0000   1.0000   1.0000   1.0000   1.0000   1.0000   1.0000   1.0000
     1.0000   1.0000   1.0000   1.0000   1.0000   1.0000   1.0000   1.0000
     1.0000   1.0000   1.0000   1.0000   1.0000   1.0000   1.0000   1.0000
     1.0000   1.0000   1.0000   1.0000   1.0000   1.0000   0.0000   0.0000
     0.0000   0.0000   0.0000   0.0000   0.0000   0.0000   0.0000

          k = 0.3750 0.1380 0.0000 ( 20887 PWs)   bands (ev):

   -70.9245 -70.9116 -35.3151 -35.3015 -35.1523 -35.1313 -34.9687 -34.8907
   -33.7119 -33.7117 -33.7077 -33.7065 -33.6904 -33.6900 -33.6646 -33.6639
   -33.6634 -33.6574 -33.4913 -33.4902 -33.4871 -33.4867 -33.4412 -33.4378
   -33.3971 -33.3960 -33.3898 -33.3867  -8.2638  -7.8773  -7.5895  -7.1661
    -2.4038  -1.7005  -1.4784  -1.0017  -0.7082  -0.1061   0.0386   0.1869
     0.8284   1.3250   1.4176   1.7648   1.8865   2.3138   4.2661   4.8169
     5.0498   5.3454   5.6611   5.8035   6.5725   6.7737   7.7664

     occupation numbers 
     1.0000   1.0000   1.0000   1.0000   1.0000   1.0000   1.0000   1.0000
     1.0000   1.0000   1.0000   1.0000   1.0000   1.0000   1.0000   1.0000
     1.0000   1.0000   1.0000   1.0000   1.0000   1.0000   1.0000   1.0000
     1.0000   1.0000   1.0000   1.0000   1.0000   1.0000   1.0000   1.0000
     1.0000   1.0000   1.0000   1.0000   1.0000   1.0000   1.0000   1.0000
     1.0000   1.0000   1.0000   1.0000   1.0000   1.0000   0.0000   0.0000
     0.0000   0.0000   0.0000   0.0000   0.0000   0.0000   0.0000

          k = 0.3750 0.2070 0.0000 ( 20886 PWs)   bands (ev):

   -70.9245 -70.9116 -35.3147 -35.3013 -35.1524 -35.1312 -34.9696 -34.8908
   -33.7120 -33.7118 -33.7077 -33.7065 -33.6904 -33.6899 -33.6646 -33.6640
   -33.6634 -33.6574 -33.4913 -33.4901 -33.4872 -33.4867 -33.4412 -33.4378
   -33.3968 -33.3958 -33.3897 -33.3867  -8.1342  -7.8457  -7.7290  -7.2089
    -2.5001  -1.9527  -1.4945  -0.9873  -0.6226  -0.1764   0.1462   0.4092
     1.0419   1.3459   1.4734   1.7394   2.0447   2.3090   4.3045   4.7900
     5.1323   5.3748   5.6442   5.9876   6.5181   6.6907   7.4184

     occupation numbers 
     1.0000   1.0000   1.0000   1.0000   1.0000   1.0000   1.0000   1.0000
     1.0000   1.0000   1.0000   1.0000   1.0000   1.0000   1.0000   1.0000
     1.0000   1.0000   1.0000   1.0000   1.0000   1.0000   1.0000   1.0000
     1.0000   1.0000   1.0000   1.0000   1.0000   1.0000   1.0000   1.0000
     1.0000   1.0000   1.0000   1.0000   1.0000   1.0000   1.0000   1.0000
     1.0000   1.0000   1.0000   1.0000   1.0000   1.0000   0.0000   0.0000
     0.0000   0.0000   0.0000   0.0000   0.0000   0.0000   0.0000

          k = 0.3750-0.2759 0.0000 ( 20900 PWs)   bands (ev):

   -70.9245 -70.9116 -35.3146 -35.3012 -35.1524 -35.1311 -34.9700 -34.8909
   -33.7120 -33.7118 -33.7078 -33.7065 -33.6904 -33.6899 -33.6646 -33.6640
   -33.6634 -33.6575 -33.4914 -33.4900 -33.4873 -33.4868 -33.4413 -33.4378
   -33.3967 -33.3958 -33.3897 -33.3866  -8.0322  -7.8759  -7.7890  -7.2299
    -2.5122  -2.0677  -1.4981  -1.0152  -0.5428  -0.2152   0.1554   0.5219
     1.2327   1.2492   1.4742   1.6866   2.1832   2.3290   4.2931   4.7762
     5.1396   5.3875   5.6537   6.0534   6.5831   6.6399   7.2271

     occupation numbers 
     1.0000   1.0000   1.0000   1.0000   1.0000   1.0000   1.0000   1.0000
     1.0000   1.0000   1.0000   1.0000   1.0000   1.0000   1.0000   1.0000
     1.0000   1.0000   1.0000   1.0000   1.0000   1.0000   1.0000   1.0000
     1.0000   1.0000   1.0000   1.0000   1.0000   1.0000   1.0000   1.0000
     1.0000   1.0000   1.0000   1.0000   1.0000   1.0000   1.0000   1.0000
     1.0000   1.0000   1.0000   1.0000   1.0000   1.0000   0.0000   0.0000
     0.0000   0.0000   0.0000   0.0000   0.0000   0.0000   0.0000

          k = 0.3750-0.2070 0.0000 ( 20886 PWs)   bands (ev):

   -70.9245 -70.9116 -35.3147 -35.3013 -35.1524 -35.1312 -34.9696 -34.8908
   -33.7120 -33.7118 -33.7077 -33.7065 -33.6904 -33.6899 -33.6646 -33.6640
   -33.6634 -33.6574 -33.4913 -33.4901 -33.4872 -33.4867 -33.4412 -33.4378
   -33.3968 -33.3958 -33.3897 -33.3867  -8.1342  -7.8457  -7.7290  -7.2089
    -2.5001  -1.9527  -1.4945  -0.9873  -0.6226  -0.1764   0.1462   0.4092
     1.0419   1.3459   1.4734   1.7394   2.0447   2.3090   4.3045   4.7900
     5.1323   5.3748   5.6442   5.9876   6.5181   6.6907   7.4184

     occupation numbers 
     1.0000   1.0000   1.0000   1.0000   1.0000   1.0000   1.0000   1.0000
     1.0000   1.0000   1.0000   1.0000   1.0000   1.0000   1.0000   1.0000
     1.0000   1.0000   1.0000   1.0000   1.0000   1.0000   1.0000   1.0000
     1.0000   1.0000   1.0000   1.0000   1.0000   1.0000   1.0000   1.0000
     1.0000   1.0000   1.0000   1.0000   1.0000   1.0000   1.0000   1.0000
     1.0000   1.0000   1.0000   1.0000   1.0000   1.0000   0.0000   0.0000
     0.0000   0.0000   0.0000   0.0000   0.0000   0.0000   0.0000

          k = 0.3750-0.1380 0.0000 ( 20887 PWs)   bands (ev):

   -70.9245 -70.9116 -35.3151 -35.3015 -35.1523 -35.1313 -34.9687 -34.8907
   -33.7119 -33.7117 -33.7077 -33.7065 -33.6904 -33.6900 -33.6646 -33.6639
   -33.6634 -33.6574 -33.4913 -33.4902 -33.4871 -33.4867 -33.4412 -33.4378
   -33.3971 -33.3960 -33.3898 -33.3867  -8.2638  -7.8773  -7.5895  -7.1661
    -2.4038  -1.7005  -1.4784  -1.0017  -0.7082  -0.1061   0.0386   0.1869
     0.8284   1.3250   1.4176   1.7648   1.8865   2.3138   4.2661   4.8169
     5.0498   5.3454   5.6611   5.8035   6.5725   6.7737   7.7664

     occupation numbers 
     1.0000   1.0000   1.0000   1.0000   1.0000   1.0000   1.0000   1.0000
     1.0000   1.0000   1.0000   1.0000   1.0000   1.0000   1.0000   1.0000
     1.0000   1.0000   1.0000   1.0000   1.0000   1.0000   1.0000   1.0000
     1.0000   1.0000   1.0000   1.0000   1.0000   1.0000   1.0000   1.0000
     1.0000   1.0000   1.0000   1.0000   1.0000   1.0000   1.0000   1.0000
     1.0000   1.0000   1.0000   1.0000   1.0000   1.0000   0.0000   0.0000
     0.0000   0.0000   0.0000   0.0000   0.0000   0.0000   0.0000

          k = 0.3750-0.0690 0.0000 ( 20889 PWs)   bands (ev):

   -70.9245 -70.9116 -35.3154 -35.3017 -35.1523 -35.1314 -34.9678 -34.8905
   -33.7119 -33.7116 -33.7077 -33.7065 -33.6904 -33.6900 -33.6645 -33.6638
   -33.6635 -33.6574 -33.4912 -33.4905 -33.4870 -33.4866 -33.4411 -33.4378
   -33.3973 -33.3962 -33.3898 -33.3868  -8.3519  -7.9103  -7.4813  -7.1332
    -2.1845  -1.5284  -1.4693  -1.1284  -0.5939  -0.2219  -0.0674   0.0341
     0.6809   1.1524   1.4446   1.5519   1.9977   2.3502   4.2379   4.7701
     4.9687   5.2869   5.5824   5.7044   6.7963   6.8841   7.8770

     occupation numbers 
     1.0000   1.0000   1.0000   1.0000   1.0000   1.0000   1.0000   1.0000
     1.0000   1.0000   1.0000   1.0000   1.0000   1.0000   1.0000   1.0000
     1.0000   1.0000   1.0000   1.0000   1.0000   1.0000   1.0000   1.0000
     1.0000   1.0000   1.0000   1.0000   1.0000   1.0000   1.0000   1.0000
     1.0000   1.0000   1.0000   1.0000   1.0000   1.0000   1.0000   1.0000
     1.0000   1.0000   1.0000   1.0000   1.0000   1.0000   0.0000   0.0000
     0.0000   0.0000   0.0000   0.0000   0.0000   0.0000   0.0000

          k =-0.5000 0.0000 0.0000 ( 20854 PWs)   bands (ev):

   -70.9178 -70.9177 -35.3204 -35.3204 -35.1434 -35.1432 -34.9265 -34.9263
   -33.7120 -33.7119 -33.7049 -33.7047 -33.6903 -33.6903 -33.6629 -33.6628
   -33.6603 -33.6603 -33.4910 -33.4905 -33.4840 -33.4836 -33.4403 -33.4398
   -33.3972 -33.3967 -33.3883 -33.3877  -7.7553  -7.7537  -7.3591  -7.3582
    -1.9871  -1.9857  -1.4158  -1.4147  -0.7213  -0.7196   0.4168   0.4171
     0.5521   0.5541   1.6574   1.6592   1.7239   1.7257   4.8307   4.8332
     5.0476   5.0489   5.3858   5.3874   7.2384   7.2412   8.4969

     occupation numbers 
     1.0000   1.0000   1.0000   1.0000   1.0000   1.0000   1.0000   1.0000
     1.0000   1.0000   1.0000   1.0000   1.0000   1.0000   1.0000   1.0000
     1.0000   1.0000   1.0000   1.0000   1.0000   1.0000   1.0000   1.0000
     1.0000   1.0000   1.0000   1.0000   1.0000   1.0000   1.0000   1.0000
     1.0000   1.0000   1.0000   1.0000   1.0000   1.0000   1.0000   1.0000
     1.0000   1.0000   1.0000   1.0000   1.0000   1.0000   0.0000   0.0000
     0.0000   0.0000   0.0000   0.0000   0.0000   0.0000   0.0000

          k =-0.5000 0.0690 0.0000 ( 20844 PWs)   bands (ev):

   -70.9178 -70.9177 -35.3202 -35.3202 -35.1434 -35.1432 -34.9268 -34.9266
   -33.7120 -33.7119 -33.7049 -33.7047 -33.6903 -33.6903 -33.6629 -33.6628
   -33.6604 -33.6603 -33.4909 -33.4905 -33.4840 -33.4836 -33.4404 -33.4398
   -33.3970 -33.3966 -33.3882 -33.3877  -7.7573  -7.7557  -7.3481  -7.3472
    -2.1786  -2.1776  -1.4037  -1.4029  -0.5834  -0.5820   0.4003   0.4004
     0.6739   0.6757   1.5814   1.5824   1.8311   1.8321   4.8036   4.8055
     5.1064   5.1077   5.4278   5.4291   7.1746   7.1775   8.1921

     occupation numbers 
     1.0000   1.0000   1.0000   1.0000   1.0000   1.0000   1.0000   1.0000
     1.0000   1.0000   1.0000   1.0000   1.0000   1.0000   1.0000   1.0000
     1.0000   1.0000   1.0000   1.0000   1.0000   1.0000   1.0000   1.0000
     1.0000   1.0000   1.0000   1.0000   1.0000   1.0000   1.0000   1.0000
     1.0000   1.0000   1.0000   1.0000   1.0000   1.0000   1.0000   1.0000
     1.0000   1.0000   1.0000   1.0000   1.0000   1.0000   0.0000   0.0000
     0.0000   0.0000   0.0000   0.0000   0.0000   0.0000   0.0000

          k =-0.5000 0.1380 0.0000 ( 20842 PWs)   bands (ev):

   -70.9178 -70.9177 -35.3199 -35.3198 -35.1433 -35.1432 -34.9275 -34.9273
   -33.7121 -33.7119 -33.7049 -33.7047 -33.6902 -33.6902 -33.6629 -33.6628
   -33.6605 -33.6605 -33.4908 -33.4904 -33.4841 -33.4836 -33.4404 -33.4398
   -33.3967 -33.3963 -33.3881 -33.3876  -7.7616  -7.7600  -7.3215  -7.3206
    -2.4983  -2.4975  -1.4378  -1.4373  -0.3590  -0.3586   0.4270   0.4280
     0.9473   0.9487   1.4653   1.4669   2.0238   2.0258   4.7642   4.7652
     5.2002   5.2008   5.5440   5.5441   7.0436   7.0464   7.7947

     occupation numbers 
     1.0000   1.0000   1.0000   1.0000   1.0000   1.0000   1.0000   1.0000
     1.0000   1.0000   1.0000   1.0000   1.0000   1.0000   1.0000   1.0000
     1.0000   1.0000   1.0000   1.0000   1.0000   1.0000   1.0000   1.0000
     1.0000   1.0000   1.0000   1.0000   1.0000   1.0000   1.0000   1.0000
     1.0000   1.0000   1.0000   1.0000   1.0000   1.0000   1.0000   1.0000
     1.0000   1.0000   1.0000   1.0000   1.0000   1.0000   0.0000   0.0000
     0.0000   0.0000   0.0000   0.0000   0.0000   0.0000   0.0000

          k =-0.5000 0.2070 0.0000 ( 20854 PWs)   bands (ev):

   -70.9178 -70.9177 -35.3195 -35.3195 -35.1433 -35.1432 -34.9282 -34.9281
   -33.7122 -33.7120 -33.7049 -33.7048 -33.6901 -33.6901 -33.6630 -33.6629
   -33.6606 -33.6605 -33.4908 -33.4904 -33.4841 -33.4837 -33.4404 -33.4399
   -33.3964 -33.3959 -33.3881 -33.3876  -7.7654  -7.7639  -7.2947  -7.2938
    -2.7371  -2.7365  -1.4842  -1.4837  -0.2643  -0.2636   0.6047   0.6066
     1.0565   1.0576   1.4450   1.4454   2.2359   2.2381   4.7359   4.7360
     5.2611   5.2613   5.6555   5.6563   6.9707   6.9724   7.3876

     occupation numbers 
     1.0000   1.0000   1.0000   1.0000   1.0000   1.0000   1.0000   1.0000
     1.0000   1.0000   1.0000   1.0000   1.0000   1.0000   1.0000   1.0000
     1.0000   1.0000   1.0000   1.0000   1.0000   1.0000   1.0000   1.0000
     1.0000   1.0000   1.0000   1.0000   1.0000   1.0000   1.0000   1.0000
     1.0000   1.0000   1.0000   1.0000   1.0000   1.0000   1.0000   1.0000
     1.0000   1.0000   1.0000   1.0000   1.0000   1.0000   0.0000   0.0000
     0.0000   0.0000   0.0000   0.0000   0.0000   0.0000   0.0000

          k =-0.5000-0.2759 0.0000 ( 20900 PWs)   bands (ev):

   -70.9178 -70.9177 -35.3193 -35.3193 -35.1433 -35.1432 -34.9285 -34.9283
   -33.7123 -33.7121 -33.7050 -33.7048 -33.6902 -33.6901 -33.6630 -33.6630
   -33.6607 -33.6607 -33.4909 -33.4904 -33.4842 -33.4837 -33.4405 -33.4400
   -33.3963 -33.3959 -33.3881 -33.3876  -7.7669  -7.7654  -7.2836  -7.2826
    -2.8233  -2.8228  -1.5032  -1.5027  -0.2533  -0.2523   0.8471   0.8495
     0.8755   0.8772   1.5068   1.5080   2.3411   2.3432   4.7255   4.7258
     5.2791   5.2793   5.6924   5.6934   6.9894   6.9911   7.1670

     occupation numbers 
     1.0000   1.0000   1.0000   1.0000   1.0000   1.0000   1.0000   1.0000
     1.0000   1.0000   1.0000   1.0000   1.0000   1.0000   1.0000   1.0000
     1.0000   1.0000   1.0000   1.0000   1.0000   1.0000   1.0000   1.0000
     1.0000   1.0000   1.0000   1.0000   1.0000   1.0000   1.0000   1.0000
     1.0000   1.0000   1.0000   1.0000   1.0000   1.0000   1.0000   1.0000
     1.0000   1.0000   1.0000   1.0000   1.0000   1.0000   0.0000   0.0000
     0.0000   0.0000   0.0000   0.0000   0.0000   0.0000   0.0000

     the Fermi energy is     3.3197 ev

!    total energy              =   -1147.96203711 Ry
     Harris-Foulkes estimate   =   -1147.96203711 Ry
     estimated scf accuracy    <          2.1E-10 Ry

     The total energy is the sum of the following terms:

     one-electron contribution =   -3091.88091432 Ry
     hartree contribution      =    1551.72453796 Ry
     xc contribution           =    -266.83309628 Ry
     ewald contribution        =     659.02800263 Ry
     smearing contrib. (-TS)   =      -0.00056709 Ry

     convergence has been achieved in  14 iterations

     Writing output data file wte2.save\

     init_run     :    106.81s CPU     62.93s WALL (       1 calls)
     electrons    :   1994.88s CPU   1245.47s WALL (       1 calls)

     Called by init_run:
     wfcinit      :     71.00s CPU     40.57s WALL (       1 calls)
     wfcinit:atom :      1.52s CPU      0.90s WALL (      34 calls)
     wfcinit:wfcr :     53.55s CPU     30.02s WALL (      34 calls)
     potinit      :     13.22s CPU      5.60s WALL (       1 calls)
     hinit0       :     22.39s CPU     16.46s WALL (       1 calls)

     Called by electrons:
     c_bands      :   1689.16s CPU   1030.64s WALL (      15 calls)
     sum_band     :    287.25s CPU    204.43s WALL (      15 calls)
     v_of_rho     :     16.77s CPU      8.51s WALL (      15 calls)
     v_h          :      0.92s CPU      0.55s WALL (      15 calls)
     v_xc         :     15.84s CPU      7.96s WALL (      15 calls)
     mix_rho      :      2.14s CPU      1.74s WALL (      15 calls)

     Called by c_bands:
     init_us_2    :     37.70s CPU     20.27s WALL (    1054 calls)
     cegterg      :   1522.83s CPU    972.06s WALL (     510 calls)

     Called by sum_band:

     Called by *egterg:
     h_psi        :   1308.34s CPU    825.61s WALL (    2014 calls)
     g_psi        :     11.34s CPU      6.44s WALL (    1470 calls)
     cdiaghg      :     21.89s CPU     15.72s WALL (    1946 calls)
     cegterg:over :     87.89s CPU     55.40s WALL (    1470 calls)
     cegterg:upda :     70.39s CPU     46.49s WALL (    1470 calls)
     cegterg:last :     30.70s CPU     19.69s WALL (     510 calls)

     Called by h_psi:
     h_psi:pot    :   1296.50s CPU    817.64s WALL (    2014 calls)
     h_psi:calbec :     67.09s CPU     38.94s WALL (    2014 calls)
     vloc_psi     :   1157.45s CPU    734.78s WALL (    2014 calls)
     add_vuspsi   :     71.34s CPU     43.28s WALL (    2014 calls)

     General routines
     calbec       :     66.41s CPU     38.54s WALL (    2014 calls)
     fft          :      3.31s CPU      2.17s WALL (     179 calls)
     ffts         :      0.09s CPU      0.06s WALL (      30 calls)
     fftw         :    831.38s CPU    492.47s WALL (  167950 calls)
     interpolate  :      0.64s CPU      0.37s WALL (      15 calls)

     Parallel routines

     PWSCF        :  35m 3.55s CPU  21m51.42s WALL


   This run was terminated on:  14: 3: 3  13Aug2024            

=------------------------------------------------------------------------------=
   JOB DONE.
=------------------------------------------------------------------------------=
